/*--------------------------------*- C++ -*----------------------------------*\
| =========                 |                                                 |
| \\      /  F ield         | OpenFOAM: The Open Source CFD Toolbox           |
|  \\    /   O peration     | Version:  3.0.1                                 |
|   \\  /    A nd           | Web:      www.OpenFOAM.org                      |
|    \\/     M anipulation  |                                                 |
\*---------------------------------------------------------------------------*/
FoamFile
{
    version     2.0;
    format      ascii;
    class       volScalarField;
    location    "101.263725316707081";
    object      p;
}
// * * * * * * * * * * * * * * * * * * * * * * * * * * * * * * * * * * * * * //

dimensions      [0 2 -2 0 0 0 0];

internalField   nonuniform List<scalar> 
8400
(
-0.325618
-0.313672
-0.309969
-0.312994
-0.319246
-0.324724
-0.327692
-0.328681
-0.328749
-0.329261
-0.331767
-0.33786
-0.348042
-0.360632
-0.376655
-0.393915
-0.410481
-0.424319
-0.433701
-0.43725
-0.433678
-0.422263
-0.402591
-0.374504
-0.338068
-0.293666
-0.242286
-0.185851
-0.127374
-0.0702787
-0.0158516
0.0381449
0.0969826
0.155572
0.21578
0.273546
0.330092
0.381948
0.429781
0.470783
0.505095
0.530759
0.547524
0.554446
0.551154
0.53743
0.513289
0.479121
0.43483
0.381979
0.320041
0.251942
0.176367
0.0974387
0.0130694
-0.0717184
-0.159588
-0.244921
-0.330858
-0.410754
-0.491158
-0.577196
-0.668094
-0.759431
-0.847126
-0.928474
-1.00181
-1.06626
-1.12137
-1.1667
-1.20186
-1.22643
-1.24028
-1.24379
-1.23786
-1.22433
-1.20472
-1.18065
-1.15395
-1.12635
-1.09927
-1.07328
-1.04984
-1.02862
-1.00945
-0.992119
-0.976361
-0.961963
-0.948878
-0.937135
-0.927417
-0.919311
-0.91283
-0.908181
-0.905692
-0.905837
-0.909074
-0.91565
-0.9254
-0.937646
-0.951198
-0.964433
-0.975405
-0.98199
-0.982175
-0.974394
-0.957537
-0.930722
-0.893875
-0.84786
-0.795197
-0.738452
-0.679497
-0.619964
-0.561575
-0.506146
-0.455516
-0.411303
-0.374643
-0.346063
-0.368045
-0.347559
-0.334774
-0.329617
-0.32979
-0.334188
-0.333699
-0.331461
-0.327799
-0.324071
-0.322151
-0.322341
-0.329426
-0.340554
-0.355641
-0.373647
-0.392501
-0.409785
-0.423186
-0.430736
-0.430974
-0.422566
-0.404562
-0.376541
-0.338571
-0.291211
-0.235824
-0.175094
-0.112994
-0.0529498
0.002831
0.0550743
0.110861
0.166306
0.223477
0.278731
0.333009
0.38315
0.429466
0.469428
0.502907
0.528097
0.544565
0.551417
0.548219
0.534752
0.511065
0.477499
0.434143
0.382395
0.322112
0.255817
0.182833
0.106676
0.0261168
-0.0546674
-0.137506
-0.217848
-0.298624
-0.375557
-0.457902
-0.548851
-0.645765
-0.74491
-0.840899
-0.929568
-1.00861
-1.07691
-1.13378
-1.17861
-1.21083
-1.23001
-1.23636
-1.23106
-1.21689
-1.19544
-1.16889
-1.13938
-1.10914
-1.07991
-1.05292
-1.02876
-1.00748
-0.988606
-0.971697
-0.956251
-0.941902
-0.92837
-0.915698
-0.901645
-0.892395
-0.884626
-0.878686
-0.875141
-0.874636
-0.877629
-0.884268
-0.894187
-0.906455
-0.919757
-0.932684
-0.943931
-0.952343
-0.956759
-0.955843
-0.948097
-0.932248
-0.908098
-0.87645
-0.838933
-0.795849
-0.748218
-0.697797
-0.646391
-0.595625
-0.546954
-0.501693
-0.46093
-0.425266
-0.394475
-0.391291
-0.369694
-0.354892
-0.348174
-0.348368
-0.352039
-0.353855
-0.349082
-0.341859
-0.333175
-0.32631
-0.320338
-0.322303
-0.329363
-0.341011
-0.356362
-0.373976
-0.391863
-0.407379
-0.417735
-0.420466
-0.4135
-0.395433
-0.365678
-0.324458
-0.272827
-0.212898
-0.14809
-0.0826927
-0.0204801
0.0333468
0.0822526
0.133374
0.184621
0.23717
0.288651
0.339163
0.38644
0.430107
0.46819
0.50009
0.524312
0.540127
0.546764
0.543694
0.530708
0.507916
0.475545
0.433998
0.384336
0.327069
0.26397
0.195434
0.123765
0.0491498
-0.0258989
-0.101642
-0.175586
-0.249234
-0.320866
-0.40028
-0.494352
-0.59646
-0.702036
-0.80532
-0.901349
-0.986855
-1.0599
-1.11922
-1.16392
-1.19345
-1.20782
-1.20783
-1.1974
-1.17838
-1.15312
-1.12435
-1.0947
-1.06643
-1.04078
-1.01843
-0.999149
-0.982395
-0.967336
-0.953571
-0.940356
-0.927729
-0.915369
-0.904336
-0.894206
-0.891139
-0.891649
-0.895164
-0.900485
-0.907073
-0.915005
-0.924552
-0.935759
-0.948177
-0.960867
-0.972681
-0.982456
-0.989113
-0.991717
-0.989387
-0.981149
-0.965844
-0.942307
-0.910573
-0.872039
-0.828728
-0.781515
-0.73131
-0.679366
-0.627387
-0.57721
-0.53035
-0.487821
-0.4503
-0.418148
-0.387305
-0.364146
-0.347692
-0.3406
-0.343432
-0.35291
-0.362844
-0.367015
-0.361768
-0.350505
-0.338212
-0.327515
-0.322074
-0.322979
-0.329567
-0.340882
-0.355836
-0.372543
-0.388207
-0.399466
-0.402966
-0.395958
-0.376681
-0.344546
-0.300159
-0.245263
-0.182696
-0.11626
-0.0502447
0.0113794
0.0621115
0.107456
0.154134
0.201463
0.249705
0.297513
0.344323
0.388632
0.429508
0.465529
0.495651
0.51875
0.533785
0.54015
0.537214
0.524786
0.503041
0.472056
0.432556
0.385242
0.331207
0.271543
0.20746
0.140366
0.0713218
0.00178851
-0.0676161
-0.135669
-0.202816
-0.268978
-0.344079
-0.437409
-0.540528
-0.648327
-0.755015
-0.855393
-0.945403
-1.02211
-1.08338
-1.12787
-1.15487
-1.16489
-1.16184
-1.14777
-1.12543
-1.09807
-1.06895
-1.04062
-1.01488
-0.992346
-0.973256
-0.956619
-0.941474
-0.928061
-0.916555
-0.906132
-0.898471
-0.892828
-0.892043
-0.893646
-0.901536
-0.909287
-0.91639
-0.923338
-0.931789
-0.943538
-0.958891
-0.976444
-0.994214
-1.01059
-1.0245
-1.03516
-1.04199
-1.04446
-1.04193
-1.03338
-1.01746
-0.993022
-0.959606
-0.918277
-0.870808
-0.818885
-0.764128
-0.708164
-0.652316
-0.597779
-0.545885
-0.497813
-0.454403
-0.416827
-0.357043
-0.332073
-0.310958
-0.298942
-0.301185
-0.31662
-0.338465
-0.357622
-0.366975
-0.364354
-0.353815
-0.340175
-0.328404
-0.321928
-0.3218
-0.32777
-0.338749
-0.352821
-0.367049
-0.377681
-0.380804
-0.373153
-0.352669
-0.31879
-0.272466
-0.215967
-0.152578
-0.0862454
-0.0212575
0.0383556
0.085853
0.127622
0.170429
0.214141
0.258661
0.303099
0.346634
0.388161
0.426483
0.460512
0.488946
0.510929
0.525206
0.531291
0.528479
0.516599
0.495859
0.466243
0.428682
0.383668
0.332613
0.276233
0.216143
0.153315
0.0891361
0.0246278
-0.0393507
-0.102015
-0.163524
-0.224315
-0.294927
-0.385595
-0.487445
-0.595038
-0.70246
-0.804414
-0.89635
-0.97452
-1.03603
-1.07916
-1.10349
-1.1104
-1.10407
-1.08686
-1.06215
-1.03373
-1.0048
-0.977501
-0.952971
-0.931202
-0.912033
-0.894699
-0.880238
-0.866946
-0.855973
-0.846622
-0.84076
-0.837056
-0.837803
-0.840209
-0.848778
-0.861962
-0.879125
-0.899429
-0.922084
-0.945995
-0.969671
-0.991667
-1.01112
-1.02776
-1.04149
-1.052
-1.05864
-1.06055
-1.05671
-1.046
-1.02753
-1.00081
-0.966065
-0.924394
-0.877331
-0.825883
-0.771092
-0.713856
-0.655202
-0.595717
-0.537118
-0.482236
-0.432232
-0.388272
-0.298624
-0.274544
-0.248229
-0.226842
-0.222436
-0.239162
-0.270738
-0.307634
-0.338241
-0.355244
-0.357307
-0.348949
-0.336034
-0.324414
-0.317797
-0.317642
-0.323567
-0.333826
-0.345439
-0.354437
-0.356575
-0.348196
-0.326948
-0.292201
-0.245084
-0.188178
-0.125024
-0.0597
0.00343671
0.0605234
0.10494
0.143289
0.182633
0.223028
0.264235
0.305601
0.346199
0.385156
0.421158
0.453305
0.480177
0.501074
0.514641
0.520445
0.517743
0.506377
0.486562
0.458254
0.422477
0.379659
0.331313
0.27801
0.221529
0.162617
0.102797
0.0428258
-0.0163117
-0.0740814
-0.130506
-0.186216
-0.25253
-0.339859
-0.439301
-0.54547
-0.652231
-0.754059
-0.846063
-0.923877
-0.984141
-1.02479
-1.04567
-1.05031
-1.04098
-1.02119
-0.994929
-0.966048
-0.937327
-0.910428
-0.88583
-0.863445
-0.842968
-0.824216
-0.807202
-0.791466
-0.777494
-0.764909
-0.754301
-0.744675
-0.737146
-0.731086
-0.731858
-0.742763
-0.762642
-0.788156
-0.816183
-0.844565
-0.872034
-0.897926
-0.921844
-0.943491
-0.962485
-0.978078
-0.989044
-0.994172
-0.992646
-0.983864
-0.967232
-0.94268
-0.910551
-0.871359
-0.82593
-0.775616
-0.721772
-0.665459
-0.606939
-0.547078
-0.488324
-0.432548
-0.379601
-0.331828
-0.211821
-0.187034
-0.1642
-0.139051
-0.120863
-0.13367
-0.167825
-0.216777
-0.268064
-0.309526
-0.333669
-0.340516
-0.335176
-0.324482
-0.314636
-0.309512
-0.310379
-0.316308
-0.324638
-0.331442
-0.332294
-0.323229
-0.301591
-0.266594
-0.219401
-0.162767
-0.100432
-0.0366452
0.0241996
0.0785592
0.120027
0.155251
0.191452
0.228822
0.267024
0.305571
0.343495
0.380063
0.413935
0.444302
0.469717
0.489555
0.502446
0.507964
0.50536
0.494472
0.475513
0.448454
0.414333
0.373604
0.327749
0.277333
0.224155
0.168857
0.11299
0.0571482
0.00239187
-0.0509427
-0.102745
-0.153837
-0.216024
-0.299713
-0.396114
-0.500103
-0.605376
-0.706106
-0.797061
-0.873432
-0.931587
-0.969513
-0.987663
-0.989276
-0.97723
-0.955506
-0.928293
-0.899191
-0.870482
-0.843358
-0.817888
-0.793988
-0.771241
-0.749677
-0.729037
-0.70939
-0.690526
-0.672299
-0.654442
-0.636668
-0.619621
-0.604387
-0.596377
-0.601208
-0.61757
-0.640549
-0.665947
-0.691491
-0.716404
-0.740689
-0.764364
-0.787125
-0.808287
-0.826744
-0.841294
-0.850825
-0.854014
-0.849869
-0.837893
-0.81785
-0.789897
-0.754874
-0.713272
-0.665515
-0.612826
-0.557174
-0.500264
-0.443561
-0.389379
-0.339579
-0.296163
-0.249841
-0.108554
-0.0772567
-0.0513794
-0.0365059
-0.0287421
-0.0327268
-0.0596069
-0.108537
-0.169845
-0.229468
-0.277623
-0.306622
-0.316987
-0.314846
-0.307447
-0.300767
-0.29818
-0.300275
-0.305286
-0.309708
-0.309139
-0.299406
-0.277569
-0.242644
-0.195756
-0.139771
-0.0786184
-0.016726
0.0415485
0.0930725
0.131704
0.164089
0.197449
0.232059
0.267523
0.30347
0.338936
0.373275
0.405171
0.433856
0.457898
0.476706
0.488944
0.494171
0.491646
0.481203
0.463045
0.437177
0.404612
0.365862
0.322324
0.274621
0.224492
0.172539
0.120281
0.0682191
0.0174342
-0.0318677
-0.0794971
-0.126406
-0.184636
-0.264503
-0.357436
-0.458693
-0.561895
-0.660926
-0.75018
-0.824554
-0.880164
-0.915144
-0.930721
-0.929556
-0.915252
-0.892106
-0.864264
-0.834918
-0.805918
-0.778013
-0.751095
-0.725023
-0.699402
-0.674337
-0.649536
-0.625197
-0.600899
-0.576706
-0.552294
-0.528018
-0.504716
-0.484441
-0.47244
-0.473991
-0.487867
-0.508652
-0.531921
-0.555587
-0.579143
-0.602687
-0.62631
-0.649913
-0.673065
-0.694662
-0.713121
-0.727089
-0.735453
-0.737136
-0.73117
-0.716545
-0.691987
-0.657707
-0.616148
-0.570246
-0.521499
-0.471028
-0.41971
-0.367978
-0.315843
-0.262282
-0.208945
-0.153746
-0.0451619
-0.0190666
0.00576068
0.0242728
0.0333404
0.0325895
0.0246784
-0.0117652
-0.0677094
-0.135354
-0.199667
-0.249466
-0.279407
-0.291548
-0.292295
-0.288511
-0.285311
-0.285068
-0.287379
-0.289577
-0.287587
-0.277183
-0.255212
-0.220501
-0.174117
-0.119014
-0.0593069
0.000430886
0.0559615
0.104607
0.140518
0.170315
0.201099
0.233187
0.266147
0.299688
0.332874
0.365127
0.395173
0.422268
0.445009
0.462821
0.47442
0.479354
0.476883
0.466856
0.449454
0.424719
0.39363
0.356753
0.315391
0.27024
0.222945
0.174095
0.125152
0.076563
0.0293959
-0.0162327
-0.0600896
-0.103197
-0.15765
-0.23361
-0.322787
-0.420893
-0.521579
-0.618484
-0.70564
-0.777723
-0.8307
-0.862885
-0.875757
-0.872127
-0.85597
-0.831706
-0.80329
-0.773494
-0.743789
-0.714591
-0.685746
-0.657035
-0.628174
-0.599269
-0.57014
-0.541102
-0.511891
-0.482918
-0.454153
-0.426488
-0.401003
-0.380147
-0.368648
-0.370661
-0.384869
-0.405876
-0.429511
-0.453985
-0.479073
-0.505196
-0.532638
-0.561094
-0.589849
-0.61782
-0.643102
-0.663501
-0.677134
-0.682209
-0.677807
-0.664614
-0.643668
-0.615564
-0.580465
-0.53842
-0.489835
-0.436192
-0.379046
-0.319714
-0.25929
-0.19837
-0.138786
-0.0823671
-0.061711
-0.0254679
0.00945979
0.0362943
0.0549234
0.0654858
0.0664826
0.048949
0.00807119
-0.0518469
-0.119132
-0.180832
-0.227339
-0.255417
-0.26798
-0.27095
-0.270242
-0.269724
-0.270464
-0.270927
-0.267665
-0.256615
-0.234532
-0.200102
-0.154346
-0.100297
-0.0422401
0.0151557
0.0678495
0.113627
0.146938
0.174368
0.202808
0.232587
0.263249
0.294557
0.32562
0.355909
0.38421
0.409798
0.431302
0.448152
0.459126
0.46376
0.461328
0.451688
0.435004
0.411347
0.381664
0.346563
0.307257
0.264509
0.219862
0.173899
0.128016
0.08263
0.0387723
-0.00350181
-0.0439389
-0.0835869
-0.134451
-0.206487
-0.291739
-0.386387
-0.484212
-0.57866
-0.663448
-0.733057
-0.783382
-0.812793
-0.823073
-0.817257
-0.799512
-0.774238
-0.745109
-0.714531
-0.683662
-0.652729
-0.62158
-0.589965
-0.557756
-0.525072
-0.491978
-0.458989
-0.426198
-0.394448
-0.363981
-0.336069
-0.311691
-0.293259
-0.284735
-0.289681
-0.306623
-0.330637
-0.357928
-0.38665
-0.416385
-0.447469
-0.480547
-0.515721
-0.552069
-0.588067
-0.621637
-0.650749
-0.673561
-0.687999
-0.692614
-0.687175
-0.671167
-0.643129
-0.602575
-0.551487
-0.492565
-0.428153
-0.360876
-0.294386
-0.232376
-0.177982
-0.13317
-0.0941181
-0.144837
-0.0869417
-0.0366542
0.00310917
0.0351407
0.0595275
0.0739369
0.0734093
0.0520106
0.00845177
-0.0508574
-0.114134
-0.169876
-0.210894
-0.235782
-0.247792
-0.252109
-0.253382
-0.253924
-0.25339
-0.249164
-0.237568
-0.21541
-0.181315
-0.136283
-0.0834279
-0.0271859
0.0277405
0.0775674
0.120527
0.151361
0.176621
0.202923
0.230578
0.259126
0.288361
0.317439
0.345875
0.37252
0.396674
0.416996
0.432921
0.443282
0.447614
0.445206
0.435925
0.419927
0.397296
0.368957
0.335543
0.298189
0.257709
0.215542
0.172275
0.12923
0.0868077
0.0459898
0.00678699
-0.0305409
-0.0670346
-0.1145
-0.182656
-0.263904
-0.354887
-0.449589
-0.541319
-0.623526
-0.690496
-0.738158
-0.764861
-0.772729
-0.764922
-0.745711
-0.719372
-0.689286
-0.657553
-0.625105
-0.592109
-0.558438
-0.523913
-0.488577
-0.452629
-0.416474
-0.380826
-0.346223
-0.313807
-0.283941
-0.258004
-0.236609
-0.22206
-0.217557
-0.226346
-0.246517
-0.273361
-0.303905
-0.337436
-0.374461
-0.415828
-0.46176
-0.510624
-0.561115
-0.613439
-0.665087
-0.710068
-0.743768
-0.765519
-0.775927
-0.773906
-0.757043
-0.724999
-0.680623
-0.627682
-0.569196
-0.507908
-0.446317
-0.387074
-0.331213
-0.280734
-0.233751
-0.194064
-0.269757
-0.199001
-0.126265
-0.0723405
-0.0242302
0.0149193
0.0452923
0.0623524
0.0617261
0.0393701
-0.00348291
-0.0589821
-0.115714
-0.164041
-0.198842
-0.220023
-0.230823
-0.235537
-0.237218
-0.236541
-0.231792
-0.219834
-0.197684
-0.163986
-0.119767
-0.0682285
-0.0139322
0.038446
0.085423
0.125645
0.154127
0.177393
0.201735
0.227433
0.254029
0.281338
0.308558
0.335242
0.360312
0.383095
0.402285
0.417319
0.427082
0.431111
0.428713
0.419769
0.404424
0.382775
0.355723
0.323915
0.288417
0.250081
0.210246
0.169502
0.129101
0.0894304
0.0514142
0.01503
-0.0194617
-0.0530753
-0.0973353
-0.161694
-0.238932
-0.326125
-0.417512
-0.506318
-0.585774
-0.649926
-0.694593
-0.719062
-0.724661
-0.714958
-0.694291
-0.666749
-0.635435
-0.602207
-0.567872
-0.532625
-0.496421
-0.459259
-0.421343
-0.38305
-0.345084
-0.308298
-0.273621
-0.24216
-0.214311
-0.191326
-0.173042
-0.161256
-0.158451
-0.170863
-0.197048
-0.232308
-0.27313
-0.318102
-0.367762
-0.422081
-0.48048
-0.543662
-0.611875
-0.681914
-0.748005
-0.805411
-0.851959
-0.886551
-0.907524
-0.912844
-0.901436
-0.874378
-0.834244
-0.783996
-0.726542
-0.664833
-0.601822
-0.540309
-0.481647
-0.426925
-0.377198
-0.345538
-0.367277
-0.301683
-0.230087
-0.166821
-0.105357
-0.0541103
-0.00922867
0.0244141
0.043627
0.0428145
0.0203195
-0.0205233
-0.0708096
-0.120211
-0.160887
-0.189571
-0.206976
-0.216111
-0.22001
-0.220023
-0.215264
-0.203202
-0.181184
-0.147969
-0.104651
-0.0545358
-0.00228525
0.0475053
0.0916836
0.12927
0.155526
0.176955
0.199497
0.223386
0.248173
0.273687
0.299169
0.324198
0.347766
0.369235
0.387336
0.401512
0.410693
0.414419
0.412022
0.403394
0.388674
0.367963
0.342149
0.311872
0.278141
0.241835
0.2042
0.165824
0.127894
0.0907847
0.0553572
0.0215672
-0.0103298
-0.041312
-0.0825574
-0.143234
-0.216504
-0.299848
-0.387783
-0.473508
-0.550083
-0.611377
-0.653364
-0.675311
-0.678695
-0.667154
-0.644986
-0.616077
-0.583295
-0.548315
-0.511916
-0.474389
-0.435869
-0.396574
-0.356875
-0.317387
-0.278972
-0.242534
-0.209072
-0.179425
-0.154308
-0.134349
-0.118692
-0.110277
-0.111821
-0.133579
-0.169925
-0.212185
-0.2574
-0.307255
-0.363281
-0.425944
-0.494886
-0.569846
-0.649081
-0.727862
-0.800686
-0.863233
-0.913316
-0.949842
-0.971475
-0.977722
-0.968388
-0.944764
-0.909046
-0.863488
-0.810565
-0.7528
-0.692647
-0.632276
-0.574241
-0.522145
-0.477092
-0.433148
-0.37644
-0.338667
-0.288814
-0.235372
-0.176041
-0.121764
-0.0691341
-0.0249516
0.0093808
0.0266475
0.0237473
0.000352965
-0.0381707
-0.0830655
-0.125168
-0.158646
-0.181665
-0.195403
-0.20221
-0.203609
-0.199348
-0.18748
-0.165755
-0.133125
-0.0908
-0.0422007
0.0079309
0.0551254
0.0965807
0.131647
0.155803
0.175537
0.196418
0.218632
0.24174
0.265577
0.28943
0.312898
0.335034
0.355243
0.372295
0.385642
0.394258
0.397685
0.395282
0.386952
0.37283
0.35302
0.328393
0.299577
0.26753
0.233153
0.197597
0.161448
0.125834
0.0911147
0.0580853
0.0266896
-0.00282953
-0.0314073
-0.0698235
-0.126951
-0.196332
-0.275819
-0.360216
-0.442744
-0.516343
-0.574757
-0.614013
-0.633448
-0.634677
-0.621327
-0.597585
-0.567159
-0.532731
-0.495853
-0.457349
-0.417693
-0.377259
-0.336469
-0.295922
-0.25644
-0.218845
-0.183879
-0.152427
-0.125405
-0.10325
-0.085882
-0.0738352
-0.0691311
-0.0729321
-0.102235
-0.141308
-0.185872
-0.236535
-0.291371
-0.348399
-0.407836
-0.471079
-0.538783
-0.608299
-0.675377
-0.736291
-0.788348
-0.829823
-0.859435
-0.876243
-0.87978
-0.870397
-0.849544
-0.819181
-0.781406
-0.737793
-0.68959
-0.637802
-0.583956
-0.530894
-0.483529
-0.445495
-0.41247
-0.312926
-0.304389
-0.284658
-0.256312
-0.214834
-0.168001
-0.118428
-0.0713302
-0.0296543
6.62212e-05
0.0130159
0.00622519
-0.0182967
-0.0545466
-0.0940256
-0.129236
-0.15617
-0.174003
-0.183942
-0.187213
-0.183885
-0.172515
-0.151262
-0.119334
-0.0780911
-0.0310881
0.0168751
0.0614903
0.100314
0.132983
0.155163
0.173334
0.192681
0.21334
0.234884
0.257154
0.279477
0.301471
0.322245
0.341246
0.357287
0.369832
0.3779
0.381035
0.378619
0.370571
0.357022
0.338078
0.314593
0.287172
0.256733
0.224191
0.190601
0.156552
0.123114
0.0906278
0.0598261
0.0306438
0.00330452
-0.023075
-0.0588381
-0.112562
-0.178162
-0.253821
-0.334637
-0.413882
-0.484444
-0.539921
-0.576438
-0.593409
-0.592509
-0.577329
-0.551926
-0.519882
-0.483713
-0.444901
-0.40442
-0.362959
-0.321094
-0.279506
-0.23909
-0.200663
-0.164771
-0.132182
-0.103698
-0.0795271
-0.0598192
-0.0448
-0.0352637
-0.0311763
-0.033222
-0.0764563
-0.107724
-0.146777
-0.191236
-0.239444
-0.290179
-0.34277
-0.396911
-0.451783
-0.50535
-0.55531
-0.59937
-0.636009
-0.663845
-0.682213
-0.690615
-0.68922
-0.678524
-0.659771
-0.634433
-0.604229
-0.570476
-0.533908
-0.494458
-0.452238
-0.408938
-0.368687
-0.337615
-0.319812
-0.232594
-0.241361
-0.242566
-0.231588
-0.214107
-0.184813
-0.14783
-0.106097
-0.064854
-0.0292064
-0.00564966
0.00130147
-0.00963074
-0.035148
-0.0688239
-0.10287
-0.1317
-0.152637
-0.1655
-0.170866
-0.168795
-0.158193
-0.137592
-0.106486
-0.066416
-0.021076
0.0246901
0.0667622
0.103057
0.133452
0.153778
0.17051
0.188436
0.207649
0.227736
0.248538
0.269423
0.290025
0.309506
0.327351
0.342418
0.354187
0.361723
0.364573
0.362143
0.354362
0.341363
0.323252
0.300863
0.274775
0.245875
0.21508
0.183354
0.151287
0.119896
0.0895008
0.0607722
0.033636
0.0082953
-0.0160699
-0.0493457
-0.0998191
-0.161764
-0.233661
-0.310881
-0.386793
-0.45423
-0.506784
-0.540608
-0.555123
-0.552084
-0.535026
-0.507904
-0.474209
-0.436276
-0.395639
-0.353489
-0.310622
-0.267847
-0.226258
-0.186798
-0.149971
-0.116541
-0.0872905
-0.0622226
-0.0413975
-0.0247051
-0.0112858
-0.00271292
-0.00258489
-0.0105847
-0.0339535
-0.0604418
-0.0928451
-0.129733
-0.170995
-0.215276
-0.26136
-0.307605
-0.352473
-0.394285
-0.431377
-0.462301
-0.485987
-0.501861
-0.509796
-0.510166
-0.503643
-0.491146
-0.473668
-0.452511
-0.428883
-0.403794
-0.377392
-0.349462
-0.319476
-0.287699
-0.256592
-0.232675
-0.224487
-0.161845
-0.178218
-0.191229
-0.195745
-0.192166
-0.178733
-0.156486
-0.125833
-0.0908741
-0.055536
-0.0268284
-0.0101246
-0.0094617
-0.0240916
-0.0500319
-0.0805199
-0.109233
-0.132019
-0.14727
-0.154698
-0.154064
-0.144443
-0.12466
-0.0944889
-0.0556775
-0.0120561
0.0315038
0.0710843
0.104957
0.1332
0.151794
0.167202
0.183814
0.201677
0.220405
0.239831
0.259364
0.278651
0.296903
0.313645
0.327775
0.338795
0.345816
0.348389
0.345943
0.338418
0.325948
0.308638
0.287301
0.262487
0.235062
0.205933
0.175972
0.145779
0.116318
0.087883
0.061084
0.0358372
0.0123323
-0.0101797
-0.0411249
-0.0885074
-0.146935
-0.215161
-0.288799
-0.361362
-0.425579
-0.475213
-0.506423
-0.518497
-0.513295
-0.494317
-0.465485
-0.430144
-0.390511
-0.348349
-0.304916
-0.261062
-0.218103
-0.177281
-0.139138
-0.104415
-0.074235
-0.048624
-0.0266812
-0.00837715
0.00796122
0.0163032
0.0159742
0.00108683
-0.00911716
-0.0235724
-0.0438474
-0.0695356
-0.0998447
-0.13408
-0.171067
-0.209296
-0.247013
-0.282693
-0.314705
-0.342056
-0.363615
-0.378681
-0.386787
-0.387891
-0.382606
-0.371671
-0.356526
-0.338411
-0.318687
-0.298298
-0.277991
-0.258202
-0.238353
-0.21725
-0.194389
-0.171527
-0.153861
-0.149988
-0.103912
-0.120963
-0.138693
-0.152205
-0.159698
-0.158775
-0.149436
-0.130929
-0.105279
-0.0751071
-0.046152
-0.024196
-0.0147684
-0.0197214
-0.0373338
-0.0626026
-0.0894382
-0.11275
-0.129652
-0.138893
-0.139735
-0.131227
-0.112399
-0.0832665
-0.0457895
-0.00393216
0.0374294
0.0745832
0.106143
0.132352
0.149331
0.163524
0.178921
0.195525
0.21298
0.231117
0.249378
0.267424
0.284508
0.300199
0.313432
0.323729
0.33025
0.332556
0.330094
0.322815
0.310853
0.294314
0.273986
0.250394
0.224384
0.19684
0.168552
0.140135
0.112496
0.0858983
0.0608927
0.0373907
0.0155793
-0.00522017
-0.033986
-0.078439
-0.133499
-0.198156
-0.26826
-0.337462
-0.398491
-0.445181
-0.473728
-0.4834
-0.476049
-0.45517
-0.424669
-0.387706
-0.346608
-0.303322
-0.258955
-0.214785
-0.172537
-0.132931
-0.0965537
-0.0649229
-0.0385921
-0.016042
0.0035742
0.0174557
0.0196756
0.00996233
-0.00943423
-0.0393655
-0.0462679
-0.0515504
-0.0676792
-0.0895252
-0.117116
-0.148242
-0.181085
-0.213995
-0.244744
-0.27166
-0.293743
-0.30996
-0.320335
-0.324442
-0.322808
-0.315588
-0.303567
-0.287768
-0.2692
-0.249254
-0.228973
-0.209548
-0.191334
-0.174139
-0.157727
-0.141723
-0.125276
-0.108513
-0.0953481
-0.093111
-0.0587347
-0.0735542
-0.0913484
-0.108324
-0.122579
-0.130852
-0.131943
-0.124343
-0.10854
-0.0860903
-0.0606546
-0.0375879
-0.0227555
-0.0200025
-0.0297968
-0.0490503
-0.0726561
-0.0952699
-0.112997
-0.123651
-0.125884
-0.118538
-0.100765
-0.0727597
-0.0366766
0.00338185
0.0425662
0.0773706
0.106725
0.131016
0.146493
0.159569
0.173845
0.189275
0.205538
0.222465
0.239531
0.256404
0.27238
0.287069
0.299446
0.309047
0.315086
0.317134
0.314658
0.307615
0.296142
0.280344
0.260986
0.238566
0.213911
0.187876
0.161177
0.134444
0.108525
0.0836471
0.0603061
0.0384194
0.0181791
-0.00103408
-0.0277687
-0.0694523
-0.121299
-0.182502
-0.249142
-0.314997
-0.372876
-0.416579
-0.442456
-0.449768
-0.440307
-0.41759
-0.38545
-0.346995
-0.304804
-0.260726
-0.215958
-0.172456
-0.131577
-0.093676
-0.0606062
-0.0338392
-0.0119715
0.00477063
0.00991567
-0.0025899
-0.0326617
-0.0637334
-0.0896402
-0.114058
-0.110662
-0.121502
-0.136644
-0.157
-0.18286
-0.21105
-0.241704
-0.269712
-0.294679
-0.313129
-0.325339
-0.330498
-0.328932
-0.321019
-0.30715
-0.288521
-0.266056
-0.241198
-0.215564
-0.190462
-0.167082
-0.145892
-0.127689
-0.112439
-0.0989322
-0.0854763
-0.0721393
-0.0600804
-0.0511231
-0.0499094
-0.0241366
-0.0363182
-0.0522109
-0.0689514
-0.0856278
-0.0992527
-0.107922
-0.109479
-0.102837
-0.0886024
-0.068966
-0.0479423
-0.0309838
-0.0229344
-0.0261437
-0.0394
-0.0589287
-0.0798271
-0.0975787
-0.109155
-0.112597
-0.106396
-0.0897252
-0.0629214
-0.0282767
0.00996478
0.0470009
0.0795436
0.106802
0.129287
0.143367
0.155415
0.168658
0.182997
0.198141
0.213931
0.229874
0.245641
0.260566
0.274302
0.285863
0.294796
0.30037
0.30217
0.299682
0.292868
0.281866
0.266782
0.248354
0.227058
0.203703
0.179103
0.153911
0.128777
0.104482
0.0812102
0.0594145
0.0390305
0.0202546
0.00250956
-0.0223386
-0.0614085
-0.110196
-0.168072
-0.231328
-0.293874
-0.348604
-0.389348
-0.412592
-0.417576
-0.406068
-0.381574
-0.347862
-0.308187
-0.265246
-0.220763
-0.176489
-0.134528
-0.095545
-0.0610714
-0.0341002
-0.0144451
-0.0021344
-0.00579294
-0.0321787
-0.0686223
-0.0987838
-0.120738
-0.150676
-0.182407
-0.202359
-0.227728
-0.253831
-0.280973
-0.309512
-0.340618
-0.370639
-0.397501
-0.415433
-0.424715
-0.424247
-0.415514
-0.398746
-0.37472
-0.344674
-0.309424
-0.271362
-0.23235
-0.194705
-0.15998
-0.129492
-0.103644
-0.0819672
-0.0646723
-0.0521439
-0.0425713
-0.0325672
-0.0223122
-0.0155338
-0.0161467
0.00135227
-0.00853096
-0.021591
-0.0362715
-0.0525338
-0.068097
-0.0809679
-0.0890797
-0.09036
-0.0839005
-0.0709017
-0.0540564
-0.0376619
-0.0267593
-0.0249892
-0.0329143
-0.0480686
-0.0664862
-0.0835692
-0.0955615
-0.0999498
-0.0948298
-0.079264
-0.0537089
-0.0205407
0.0158874
0.0508116
0.0811854
0.106457
0.127246
0.140029
0.151126
0.163417
0.176745
0.190841
0.205561
0.220447
0.235174
0.249103
0.261932
0.272717
0.281013
0.286139
0.287702
0.285205
0.278613
0.268064
0.253666
0.236132
0.215915
0.193805
0.170568
0.14681
0.123194
0.100427
0.0786528
0.0582958
0.0393174
0.0219085
0.00551759
-0.0175836
-0.0541883
-0.100067
-0.15475
-0.214712
-0.273995
-0.325591
-0.363435
-0.384094
-0.386802
-0.373322
-0.347118
-0.312007
-0.271429
-0.228064
-0.183837
-0.141011
-0.101263
-0.0656472
-0.037539
-0.0192002
-0.00979963
-0.015519
-0.0422662
-0.0752887
-0.100333
-0.112596
-0.127519
-0.163301
-0.211836
-0.262901
-0.325549
-0.382703
-0.441472
-0.489297
-0.533117
-0.571286
-0.60208
-0.619349
-0.618557
-0.601769
-0.57148
-0.532045
-0.485624
-0.434069
-0.378798
-0.321464
-0.264791
-0.210942
-0.16237
-0.120478
-0.0862175
-0.0587587
-0.0368442
-0.0203792
-0.0100746
-0.00362744
0.00295954
0.00907503
0.0092765
0.0155707
0.00982224
0.000344405
-0.0112522
-0.0250741
-0.040143
-0.0544457
-0.0660269
-0.0732169
-0.0737254
-0.067213
-0.0555298
-0.0417314
-0.030161
-0.0250761
-0.0286861
-0.0397144
-0.0551844
-0.0710227
-0.0829846
-0.0880092
-0.0838621
-0.0693841
-0.0450845
-0.0134245
0.0212083
0.0540709
0.0823677
0.105765
0.124961
0.136542
0.146758
0.158169
0.170561
0.183679
0.19739
0.211282
0.225032
0.238019
0.249986
0.260034
0.267723
0.272421
0.273757
0.271255
0.264878
0.254766
0.241027
0.224353
0.205172
0.18425
0.16231
0.139915
0.117741
0.0964085
0.0760294
0.0570178
0.0393594
0.023224
0.00807632
-0.0134091
-0.0476887
-0.0908076
-0.142432
-0.199196
-0.255271
-0.303777
-0.338789
-0.356919
-0.357428
-0.342061
-0.314263
-0.277999
-0.236836
-0.193507
-0.150351
-0.109796
-0.0733172
-0.0432803
-0.0235275
-0.0139942
-0.0157879
-0.036325
-0.0653344
-0.0838134
-0.0867276
-0.0881341
-0.109457
-0.15932
-0.246
-0.345358
-0.415304
-0.50096
-0.576784
-0.648417
-0.706234
-0.754897
-0.789652
-0.805484
-0.795982
-0.762388
-0.711757
-0.650794
-0.585195
-0.51631
-0.445192
-0.372524
-0.301908
-0.236112
-0.177527
-0.127498
-0.0867052
-0.0546353
-0.0296311
-0.0102319
0.00323529
0.0108729
0.0152296
0.0189855
0.0201482
0.0176537
0.0168339
0.0128446
0.00541855
-0.00434814
-0.0166181
-0.0305192
-0.0432628
-0.0536274
-0.0596357
-0.0591912
-0.0527032
-0.0426049
-0.0322822
-0.0254979
-0.0258059
-0.0333456
-0.0457878
-0.0599054
-0.0714628
-0.0768431
-0.0735009
-0.0600853
-0.0370276
-0.00688107
0.025976
0.0568435
0.0831542
0.104785
0.122492
0.132962
0.142358
0.152951
0.164479
0.176687
0.18945
0.202403
0.215236
0.227335
0.238482
0.247832
0.254945
0.259235
0.260355
0.25785
0.251683
0.241992
0.228888
0.21304
0.194852
0.175066
0.154356
0.13326
0.11245
0.0924628
0.073386
0.055639
0.039221
0.0242669
0.0102566
-0.00973333
-0.0418202
-0.0823235
-0.131027
-0.184694
-0.237606
-0.283108
-0.315375
-0.331044
-0.329443
-0.312287
-0.283068
-0.245937
-0.204551
-0.161849
-0.120568
-0.0830878
-0.0511868
-0.0280345
-0.0155969
-0.0123227
-0.0224264
-0.0449167
-0.0579273
-0.0566808
-0.0598705
-0.0697373
-0.106075
-0.219382
-0.312638
-0.424332
-0.468901
-0.552678
-0.624452
-0.697516
-0.755618
-0.799089
-0.826729
-0.835036
-0.821313
-0.784284
-0.729543
-0.663809
-0.593573
-0.52035
-0.445791
-0.364448
-0.292584
-0.226823
-0.16918
-0.120836
-0.0818537
-0.0517654
-0.0290998
-0.0120352
-1.41775e-05
0.00711931
0.0111026
0.0152666
0.0182599
0.0187073
0.0181137
0.0166657
0.0146336
0.0093292
0.00148112
-0.0100293
-0.022628
-0.0341206
-0.0432787
-0.0479691
-0.0465537
-0.040316
-0.0323972
-0.0256594
-0.0236488
-0.0283346
-0.0380496
-0.0501705
-0.0609642
-0.0664857
-0.0637668
-0.0513494
-0.0295284
-0.000868856
0.0302382
0.0591833
0.083602
0.103569
0.119886
0.129334
0.137968
0.147798
0.158525
0.169888
0.181761
0.19383
0.205801
0.217063
0.227434
0.236121
0.24269
0.246593
0.247508
0.245004
0.239041
0.229757
0.217263
0.202208
0.184971
0.166268
0.146729
0.126868
0.107349
0.088619
0.070762
0.0542077
0.0389529
0.0250889
0.0121186
-0.00648424
-0.0365045
-0.074533
-0.120453
-0.171132
-0.220927
-0.263499
-0.293141
-0.306446
-0.302839
-0.284014
-0.2536
-0.215914
-0.174725
-0.133286
-0.0945632
-0.0608112
-0.0340616
-0.0166974
-0.00791044
-0.00694662
-0.017815
-0.0288594
-0.0261163
-0.0220242
-0.0452341
-0.102389
-0.1386
-0.304195
-0.365127
-0.395083
-0.425608
-0.476029
-0.532895
-0.587491
-0.630748
-0.660122
-0.677678
-0.68245
-0.671737
-0.644242
-0.602814
-0.551558
-0.493939
-0.431816
-0.36691
-0.301094
-0.237979
-0.18013
-0.129433
-0.0868536
-0.0528769
-0.0276431
-0.0105405
0.000395388
0.00645623
0.00874918
0.00912196
0.010145
0.015645
0.0190921
0.0246553
0.0245228
0.0235
0.0193687
0.0144116
0.00624009
-0.00494229
-0.0165313
-0.0267836
-0.0346438
-0.0379183
-0.0355686
-0.0302947
-0.0248352
-0.0218413
-0.0241841
-0.0315892
-0.0417452
-0.0514598
-0.0569077
-0.0546856
-0.0431593
-0.0225659
0.00463935
0.0340417
0.0611376
0.0837604
0.10216
0.117182
0.125694
0.13362
0.142737
0.152719
0.163299
0.174341
0.185576
0.196737
0.207211
0.216847
0.224908
0.230964
0.2345
0.235223
0.232723
0.22696
0.218068
0.206161
0.191867
0.175541
0.157869
0.139442
0.120756
0.102453
0.0849006
0.0681901
0.0527621
0.0385929
0.0257312
0.0137147
-0.00359816
-0.031673
-0.0673644
-0.110643
-0.158429
-0.205201
-0.24491
-0.272018
-0.28309
-0.277597
-0.257258
-0.225918
-0.188006
-0.147469
-0.107856
-0.0721028
-0.0421853
-0.0197359
-0.00525791
0.00380411
0.00633618
0.0021452
0.0018719
0.00179064
-0.0163778
-0.0675393