/*--------------------------------*- C++ -*----------------------------------*\
| =========                 |                                                 |
| \\      /  F ield         | OpenFOAM: The Open Source CFD Toolbox           |
|  \\    /   O peration     | Version:  3.0.1                                 |
|   \\  /    A nd           | Web:      www.OpenFOAM.org                      |
|    \\/     M anipulation  |                                                 |
\*---------------------------------------------------------------------------*/
FoamFile
{
    version     2.0;
    format      ascii;
    class       volVectorField;
    location    "101.263725316707081";
    object      U;
}
// * * * * * * * * * * * * * * * * * * * * * * * * * * * * * * * * * * * * * //

dimensions      [0 1 -1 0 0 0 0];

internalField   nonuniform List<vector> 
8400
(
(0.0178979 -0.185419 1.40312e-17)
(-0.00886822 -0.121023 1.85391e-17)
(-0.0311494 -0.0587666 2.22356e-17)
(-0.0449085 -0.00399998 2.59831e-17)
(-0.0488099 0.0359771 3.38406e-17)
(-0.0443388 0.0565241 3.00239e-17)
(-0.0372281 0.0563981 1.41322e-17)
(-0.0300782 0.0429837 1.39018e-17)
(-0.0233933 0.0260562 1.30882e-17)
(-0.0166086 0.0136802 4.76661e-18)
(-0.0088818 0.00863415 -2.21246e-18)
(0.000824869 0.00832031 -1.83016e-18)
(0.0148364 0.0104159 1.07547e-18)
(0.0326409 0.0130578 2.81893e-18)
(0.0532994 0.0152325 4.15284e-18)
(0.0765875 0.0171693 2.40239e-18)
(0.100918 0.0204612 -5.25322e-19)
(0.12508 0.0258831 -5.16226e-19)
(0.148681 0.033756 2.62439e-18)
(0.172091 0.0443763 4.77423e-18)
(0.195868 0.0584701 2.87703e-18)
(0.220312 0.0764444 -8.38331e-19)
(0.245652 0.0986597 1.90436e-18)
(0.271831 0.125627 -6.63375e-19)
(0.298247 0.157872 -3.72057e-19)
(0.323533 0.19559 -8.02064e-19)
(0.345356 0.237874 -5.79568e-19)
(0.360982 0.28179 1.14004e-20)
(0.36928 0.322587 -5.14081e-19)
(0.372076 0.355929 -4.69311e-19)
(0.361325 0.376577 -8.78936e-19)
(0.318081 0.358203 -5.57863e-19)
(0.290055 0.355893 4.02898e-19)
(0.248549 0.337745 3.7626e-19)
(0.216104 0.32201 2.05266e-18)
(0.178098 0.297316 -3.15903e-18)
(0.146745 0.272152 -9.182e-19)
(0.114266 0.2412 -2.0905e-18)
(0.0873363 0.208744 -4.17349e-18)
(0.0621847 0.172644 -2.43303e-18)
(0.0421738 0.13483 -1.81242e-18)
(0.0257441 0.0948996 -2.03899e-18)
(0.0142885 0.0537151 9.95507e-19)
(0.00745115 0.0114924 9.73642e-19)
(0.00555217 -0.0313983 -8.17168e-18)
(0.00863697 -0.074479 -7.64415e-18)
(0.0166857 -0.117508 -9.96318e-18)
(0.0300136 -0.160374 -6.57215e-18)
(0.0477327 -0.202307 2.97883e-18)
(0.0712714 -0.243656 -1.19576e-18)
(0.0978243 -0.282353 2.09611e-18)
(0.131162 -0.320766 2.43965e-18)
(0.164915 -0.354035 2.64455e-18)
(0.207118 -0.388171 3.38401e-18)
(0.245716 -0.413669 3.19252e-18)
(0.295347 -0.442178 6.41484e-18)
(0.335348 -0.457246 3.70653e-18)
(0.390619 -0.480195 6.13513e-18)
(0.426056 -0.479572 2.0487e-18)
(0.485336 -0.504572 9.36545e-18)
(0.501912 -0.47918 -4.41212e-18)
(0.50444 -0.439883 7.18209e-18)
(0.501211 -0.390194 5.92371e-18)
(0.489316 -0.33458 4.73574e-18)
(0.469291 -0.27946 6.09679e-18)
(0.444674 -0.229468 -6.90377e-18)
(0.419069 -0.186375 -8.24281e-18)
(0.394806 -0.150038 -9.30036e-18)
(0.37302 -0.119565 -3.16459e-18)
(0.353985 -0.0939296 6.06316e-18)
(0.337409 -0.0722491 5.03903e-18)
(0.322323 -0.0537383 3.28121e-19)
(0.30739 -0.0377261 1.6306e-18)
(0.291557 -0.024201 2.51857e-18)
(0.274008 -0.0139968 1.22501e-17)
(0.253684 -0.00671597 -7.00472e-18)
(0.229352 -0.00277587 -1.86107e-18)
(0.200758 -0.00240498 1.66967e-18)
(0.16837 -0.0056448 1.69027e-17)
(0.133414 -0.0121729 9.14183e-18)
(0.0973592 -0.021692 6.32515e-18)
(0.0622489 -0.0331726 -3.9343e-19)
(0.0297888 -0.0454947 -2.53287e-17)
(0.00114466 -0.0582167 -3.01815e-17)
(-0.023081 -0.0706916 -1.64734e-17)
(-0.0426029 -0.0821315 -1.56837e-17)
(-0.0576206 -0.0920313 -3.85678e-17)
(-0.0684373 -0.100032 -8.01206e-17)
(-0.0756129 -0.106543 -7.08183e-17)
(-0.0798369 -0.11205 -2.55994e-17)
(-0.0823731 -0.122231 3.99936e-17)
(-0.0815851 -0.134696 2.34866e-17)
(-0.0783698 -0.154461 -2.64394e-17)
(-0.0725094 -0.181767 -4.19541e-17)
(-0.0636696 -0.216242 -7.29465e-17)
(-0.0521088 -0.256865 5.85188e-19)
(-0.0385728 -0.302807 -2.88625e-17)
(-0.0234337 -0.353478 3.24883e-17)
(-0.0064103 -0.40815 2.17515e-17)
(0.0128519 -0.465619 -8.01198e-18)
(0.033916 -0.524122 -4.36523e-18)
(0.0550739 -0.58138 -1.16943e-17)
(0.0737346 -0.634686 -7.93269e-18)
(0.0878508 -0.681141 -8.94941e-18)
(0.0975115 -0.7182 -4.34537e-18)
(0.105287 -0.744452 4.8394e-19)
(0.114582 -0.759619 -8.25672e-18)
(0.127129 -0.763399 1.91692e-17)
(0.141484 -0.755555 1.96482e-17)
(0.154871 -0.738102 7.89794e-18)
(0.164986 -0.712224 3.25912e-17)
(0.170869 -0.679797 1.87654e-17)
(0.172281 -0.641546 2.86958e-17)
(0.168846 -0.597689 3.25656e-17)
(0.160221 -0.548292 4.18957e-17)
(0.146411 -0.493795 2.67726e-17)
(0.127913 -0.435369 3.4946e-17)
(0.105397 -0.37464 3.25941e-17)
(0.079274 -0.312943 2.69458e-17)
(0.0497631 -0.25074 1.90928e-17)
(-0.0965508 -0.325456 1.37554e-17)
(-0.127936 -0.279493 1.7566e-17)
(-0.14988 -0.219275 2.85692e-17)
(-0.152434 -0.148261 3.8201e-17)
(-0.136237 -0.0715975 2.89082e-17)
(-0.106403 -0.00492479 2.87449e-17)
(-0.0730379 0.0410624 2.93397e-17)
(-0.0457271 0.0626448 3.11746e-17)
(-0.02503 0.0591048 4.10358e-17)
(-0.00739804 0.0396694 2.94789e-17)
(0.0133011 0.0177109 1.65024e-17)
(0.0395695 0.00447631 5.26442e-18)
(0.0746085 0.00302103 2.12058e-18)
(0.119835 0.00720734 5.28778e-18)
(0.172492 0.0148025 1.37313e-18)
(0.23069 0.0254992 -1.42809e-19)
(0.291679 0.0406381 -3.84868e-18)
(0.352453 0.0618185 1.61647e-18)
(0.411189 0.0896958 5.07086e-18)
(0.467482 0.124546 5.1629e-18)
(0.521864 0.166882 1.41943e-18)
(0.574443 0.216788 -3.04115e-18)
(0.624238 0.274083 -5.60521e-18)
(0.669012 0.337905 -2.31276e-18)
(0.705246 0.405888 -1.20205e-18)
(0.72907 0.473764 -2.63922e-18)
(0.737929 0.536032 -2.5508e-18)
(0.732239 0.587826 8.75168e-19)
(0.715491 0.626798 -1.093e-18)
(0.691637 0.653368 -1.25679e-19)
(0.65953 0.666394 -1.04942e-18)
(0.582357 0.637901 -1.41579e-18)
(0.537198 0.632673 -2.30989e-18)
(0.464521 0.600728 -3.53414e-18)
(0.412392 0.575301 -4.94058e-18)
(0.346011 0.533675 -7.68193e-18)
(0.293916 0.490798 -2.34697e-18)
(0.236799 0.437879 -1.67851e-18)
(0.190705 0.380567 -1.26501e-17)
(0.145948 0.317024 -7.99293e-18)
(0.110841 0.24853 -5.17735e-18)
(0.0811911 0.176294 -7.80723e-18)
(0.06059 0.100407 1.62154e-18)
(0.0480778 0.0225774 -4.79575e-18)
(0.0444718 -0.0569702 -1.27286e-17)
(0.0498866 -0.136666 -2.08029e-17)
(0.064232 -0.21628 -2.90002e-17)
(0.088333 -0.29426 -1.5268e-17)
(0.119535 -0.370663 -1.51491e-18)
(0.161596 -0.443591 2.46861e-18)
(0.207278 -0.512192 9.22578e-18)
(0.266037 -0.577189 6.3107e-18)
(0.322355 -0.633747 7.31864e-18)
(0.395539 -0.688764 1.01598e-17)
(0.457463 -0.729367 8.37563e-18)
(0.542179 -0.773473 1.05044e-17)
(0.603845 -0.794785 7.66431e-18)
(0.696785 -0.829293 1.45064e-17)
(0.751496 -0.8289 6.75675e-18)
(0.849995 -0.859443 1.68415e-17)
(0.892639 -0.8407 1.22454e-17)
(0.929618 -0.808523 1.30652e-17)
(0.961335 -0.763629 1.01966e-17)
(0.984115 -0.705234 1.30239e-17)
(0.993783 -0.634982 8.05569e-18)
(0.989024 -0.557132 1.44123e-17)
(0.972116 -0.477187 3.60146e-18)
(0.947427 -0.400006 5.93842e-19)
(0.919514 -0.328552 2.30166e-18)
(0.891575 -0.263718 3.03207e-18)
(0.865116 -0.205354 8.62409e-18)
(0.839272 -0.152395 -6.95549e-18)
(0.812663 -0.103789 8.64253e-18)
(0.785265 -0.0605498 1.20662e-17)
(0.75492 -0.0229715 1.29239e-17)
(0.719502 0.0090935 7.91056e-18)
(0.677388 0.0352404 8.75181e-18)
(0.628752 0.0554262 8.48785e-18)
(0.574218 0.0694335 1.28384e-17)
(0.515718 0.0777972 1.16048e-17)
(0.454712 0.0807389 2.70099e-17)
(0.393414 0.0791308 2.07759e-17)
(0.3329 0.0735595 1.33907e-17)
(0.274865 0.0650652 3.71713e-17)
(0.2197 0.0538455 3.56926e-17)
(0.168678 0.0410976 5.33237e-17)
(0.121984 0.0264068 -9.83135e-18)
(0.0818756 0.0106424 -4.6419e-17)
(0.0491585 -0.00880122 -3.69484e-17)
(0.0303187 -0.0258243 -2.62343e-17)
(0.0138861 -0.0580815 -2.51344e-17)
(0.0200843 -0.0967749 -3.57314e-17)
(0.0377442 -0.133903 -4.34525e-17)
(0.0503573 -0.170456 -6.79351e-19)
(0.0521347 -0.209295 2.38222e-17)
(0.0456883 -0.253153 4.77942e-18)
(0.0368272 -0.302212 -6.88224e-19)
(0.0300603 -0.354396 -3.47589e-17)
(0.0267213 -0.4065 1.26171e-18)
(0.0263039 -0.455545 3.26314e-17)
(0.0281132 -0.499555 5.22032e-17)
(0.0315299 -0.537529 8.48817e-17)
(0.0363319 -0.569727 5.65746e-17)
(0.0425115 -0.597024 5.25697e-17)
(0.0502398 -0.62017 -4.28912e-18)
(0.0595548 -0.638871 1.02931e-17)
(0.070101 -0.651404 -4.39001e-17)
(0.0812079 -0.656123 -1.49923e-17)
(0.0923503 -0.653727 -3.29334e-17)
(0.103215 -0.643844 -1.42913e-17)
(0.112176 -0.626563 -1.63056e-17)
(0.117839 -0.603237 1.48979e-17)
(0.117947 -0.575179 4.15298e-18)
(0.110551 -0.544364 3.26433e-17)
(0.0951107 -0.512354 2.63986e-17)
(0.0726796 -0.480391 3.4984e-17)
(0.0452082 -0.44932 4.18681e-17)
(0.014343 -0.419827 2.51721e-17)
(-0.0195745 -0.391943 2.17568e-17)
(-0.0571558 -0.363008 1.04523e-17)
(-0.168409 -0.331788 3.83378e-17)
(-0.20805 -0.325874 3.72147e-17)
(-0.23834 -0.301854 1.72743e-17)
(-0.237904 -0.253508 3.45651e-17)
(-0.203352 -0.18243 2.55869e-17)
(-0.146586 -0.100604 2.06608e-17)
(-0.0827248 -0.0248597 2.53715e-17)
(-0.0276862 0.0313753 3.05128e-17)
(0.0127886 0.0620129 3.57318e-17)
(0.0439133 0.066655 4.43246e-17)
(0.0765029 0.0535542 4.08667e-17)
(0.118299 0.0391407 2.07495e-17)
(0.173182 0.0314087 3.50695e-18)
(0.242299 0.0312262 2.8848e-18)
(0.321161 0.0384734 -2.83287e-18)
(0.40578 0.0524578 -5.16315e-19)
(0.492373 0.0742905 -5.87687e-18)
(0.577261 0.105278 5.73861e-18)
(0.657709 0.145947 8.90543e-18)
(0.732156 0.196109 5.51029e-18)
(0.799709 0.255088 6.84464e-18)
(0.858811 0.321811 1.52969e-18)
(0.906603 0.394085 -3.0628e-18)
(0.939549 0.468175 3.65563e-19)
(0.954481 0.538879 -5.87683e-19)
(0.950101 0.6005 -5.989e-19)
(0.927987 0.648325 2.97699e-19)
(0.89246 0.680061 9.60489e-19)
(0.848998 0.69649 1.02075e-18)
(0.802216 0.700679 1.78627e-18)
(0.757266 0.696284 1.11325e-18)
(0.68152 0.684734 5.50809e-19)
(0.630302 0.66898 2.45429e-19)
(0.556856 0.647929 -1.14352e-18)
(0.499713 0.616463 1.39149e-19)
(0.430072 0.581172 -1.64457e-18)
(0.37306 0.533216 -1.03771e-17)
(0.31102 0.482103 -8.99637e-18)
(0.260246 0.41877 -1.55614e-17)
(0.21028 0.352576 -1.75152e-17)
(0.171184 0.276389 -7.06838e-18)
(0.13747 0.197633 -1.78589e-17)
(0.114175 0.112461 -2.48604e-17)
(0.0998186 0.0255038 -9.4392e-18)
(0.0957038 -0.064109 -1.79866e-17)
(0.101969 -0.153535 -3.48313e-17)
(0.118342 -0.243229 -1.86689e-17)
(0.146267 -0.32903 -5.76766e-18)
(0.181471 -0.414622 8.36229e-18)
(0.229213 -0.491355 1.25861e-17)
(0.280254 -0.567721 1.58312e-17)
(0.34516 -0.631042 1.59789e-17)
(0.407678 -0.694101 1.57296e-17)
(0.485493 -0.741221 1.46256e-17)
(0.554081 -0.787997 1.24624e-17)
(0.64012 -0.818081 1.60583e-17)
(0.708742 -0.847202 1.10687e-17)
(0.798903 -0.861965 1.90276e-17)
(0.861625 -0.874257 6.30388e-18)
(0.954122 -0.879084 1.58932e-17)
(1.01192 -0.879361 5.09687e-18)
(1.07538 -0.871011 1.51432e-17)
(1.13843 -0.850675 1.23704e-17)
(1.19684 -0.814826 2.46224e-17)
(1.24552 -0.761834 1.60339e-17)
(1.28014 -0.693243 2.37749e-17)
(1.29914 -0.613179 7.92039e-18)
(1.30389 -0.526962 5.08042e-18)
(1.29778 -0.439595 8.33935e-18)
(1.28451 -0.354555 3.58797e-18)
(1.26723 -0.274341 1.27371e-17)
(1.24586 -0.199167 2.48526e-18)
(1.22235 -0.130863 2.6168e-17)
(1.19778 -0.0701658 1.8113e-17)
(1.16952 -0.0170577 1.93976e-17)
(1.13689 0.0290248 1.59543e-17)
(1.09896 0.0680008 1.45218e-17)
(1.05692 0.100921 1.09809e-17)
(1.01065 0.127623 2.69876e-17)
(0.962359 0.14975 2.2674e-17)
(0.911386 0.166633 2.64954e-17)
(0.860212 0.180239 2.32215e-17)
(0.806948 0.189231 2.84555e-17)
(0.754737 0.195967 1.44627e-17)
(0.700493 0.197415 1.39468e-17)
(0.648813 0.19732 1.78499e-17)
(0.594489 0.18984 1.40201e-17)
(0.547025 0.183143 5.64394e-18)
(0.492461 0.16344 5.17896e-18)
(0.472101 0.161451 -2.26266e-17)
(0.376274 0.119481 -9.18488e-18)
(0.280966 0.0708798 -1.73774e-17)
(0.21662 0.0257077 -3.11824e-17)
(0.192615 -0.0170854 -9.17774e-18)
(0.202535 -0.0560746 7.66419e-17)
(0.229039 -0.0898125 1.00091e-16)
(0.255306 -0.11819 2.06548e-17)
(0.271558 -0.142183 8.55036e-17)
(0.274825 -0.164582 4.45162e-17)
(0.266682 -0.187243 4.40217e-17)
(0.250668 -0.211146 7.75684e-17)
(0.230284 -0.237223 1.16897e-16)
(0.208156 -0.265412 -1.88096e-17)
(0.185387 -0.295369 -9.84197e-17)
(0.161446 -0.32631 -7.74869e-17)
(0.134717 -0.356814 -1.29859e-17)
(0.103817 -0.385011 -2.29513e-17)
(0.0687588 -0.408643 -1.58369e-17)
(0.0316993 -0.426164 -1.28748e-17)
(-0.00350329 -0.440075 -7.46098e-18)
(-0.0331442 -0.449009 -5.62128e-18)
(-0.0564315 -0.452449 -2.35146e-18)
(-0.0739939 -0.448727 1.08736e-17)
(-0.0872091 -0.437616 1.93754e-17)
(-0.0959764 -0.42024 3.36897e-17)
(-0.0999165 -0.398762 4.26882e-17)
(-0.100414 -0.375868 4.54325e-17)
(-0.101695 -0.354327 3.96817e-17)
(-0.110257 -0.337911 4.23013e-17)
(-0.132554 -0.330847 3.86827e-17)
(-0.207278 -0.317036 5.11009e-17)
(-0.240916 -0.330332 5.85463e-17)
(-0.27881 -0.337117 5.79495e-17)
(-0.283524 -0.32174 5.15204e-17)
(-0.240021 -0.274491 3.7029e-17)
(-0.159647 -0.199273 1.54099e-17)
(-0.0659068 -0.112437 1.85417e-17)
(0.0181744 -0.0351484 3.34802e-17)
(0.0830903 0.0190622 2.51154e-17)
(0.131975 0.0501319 3.0847e-17)
(0.17664 0.0610947 3.29171e-17)
(0.231464 0.0606164 2.44751e-17)
(0.303489 0.056798 1.53633e-17)
(0.392045 0.0580152 1.57719e-17)
(0.490454 0.0674376 9.16079e-18)
(0.592017 0.0856954 1.08549e-17)
(0.691941 0.112954 5.40076e-19)
(0.78645 0.14969 5.0587e-18)
(0.872544 0.196241 5.88472e-18)
(0.947906 0.252174 5.42501e-18)
(1.0104 0.316113 -2.48416e-18)
(1.05742 0.385715 1.69683e-18)
(1.08597 0.457119 -1.60895e-18)
(1.09381 0.525231 9.83022e-19)
(1.08051 0.584585 5.88011e-18)
(1.04819 0.630574 1.5337e-18)
(1.00131 0.660443 1.53735e-18)
(0.945634 0.673908 1.11252e-18)
(0.886806 0.673178 2.90085e-18)
(0.829498 0.66193 2.55589e-18)
(0.780884 0.646013 3.09672e-18)
(0.71444 0.648391 1.92918e-18)
(0.663804 0.626124 3.35139e-18)
(0.597444 0.616164 -1.02148e-18)
(0.542187 0.582429 4.55539e-18)
(0.477073 0.556329 2.83554e-18)
(0.421941 0.508728 -4.54419e-18)
(0.36216 0.464975 -3.79854e-18)
(0.312664 0.403154 -9.01822e-18)
(0.263429 0.342357 -8.3499e-18)
(0.224972 0.267874 -5.52942e-18)
(0.191307 0.192574 -1.64417e-17)
(0.168151 0.108853 -1.81937e-17)
(0.153711 0.0239103 -1.0065e-17)
(0.149682 -0.0643448 -2.26621e-17)
(0.15619 -0.15206 -2.52288e-17)
(0.172776 -0.240435 -2.6083e-18)
(0.201405 -0.323356 1.18281e-17)
(0.236582 -0.407371 7.25548e-18)
(0.284529 -0.478888 1.89755e-17)
(0.335171 -0.553501 1.92418e-17)
(0.398948 -0.608921 1.66104e-17)
(0.46037 -0.670521 1.43027e-17)
(0.534703 -0.707226 1.4201e-17)
(0.601555 -0.753744 1.47457e-17)
(0.681029 -0.771396 1.49771e-17)
(0.74787 -0.802892 1.37707e-17)
(0.828215 -0.80352 1.42993e-17)
(0.890425 -0.822384 1.32717e-17)
(0.970571 -0.810793 1.61132e-17)
(1.0325 -0.822572 1.18237e-17)
(1.10735 -0.829457 9.63126e-18)
(1.18697 -0.825724 1.6411e-17)
(1.26681 -0.807152 5.16472e-18)
(1.34167 -0.770713 2.20015e-17)
(1.40643 -0.716149 1.45062e-17)
(1.45734 -0.645767 1.39576e-17)
(1.49299 -0.563782 8.79693e-18)
(1.51414 -0.474992 1.46191e-17)
(1.52317 -0.383936 8.71316e-18)
(1.52232 -0.294836 2.70487e-17)
(1.51344 -0.209218 1.25239e-17)
(1.50028 -0.131089 1.74988e-17)
(1.4832 -0.0607033 1.05168e-17)
(1.46186 0.00180756 2.57916e-17)
(1.43722 0.0574241 8.21685e-18)
(1.40926 0.106094 1.26029e-17)
(1.37995 0.150101 2.16916e-17)
(1.34833 0.188721 1.94796e-17)
(1.31714 0.225517 1.47307e-17)
(1.28312 0.25754 2.36844e-17)
(1.25085 0.289814 4.95574e-18)
(1.21371 0.315496 1.30224e-17)
(1.1811 0.344459 4.83242e-18)
(1.14041 0.363267 2.16765e-17)
(1.11074 0.390585 1.85478e-17)
(1.06561 0.401115 2.08547e-17)
(1.04673 0.432551 1.55698e-17)
(0.992933 0.432277 1.93464e-17)
(1.0018 0.47996 2.2445e-17)
(0.925909 0.461885 3.81861e-18)
(0.834894 0.431459 -9.10934e-18)
(0.740156 0.3947 1.98955e-17)
(0.644919 0.351066 -3.17813e-17)
(0.554405 0.303005 4.01885e-18)
(0.475768 0.256433 2.53793e-17)
(0.414676 0.216109 1.95263e-17)
(0.37153 0.183109 3.94209e-17)
(0.341874 0.156242 3.94949e-17)
(0.320215 0.133742 4.41668e-17)
(0.302022 0.114235 4.8983e-17)
(0.283954 0.0962562 5.41088e-17)
(0.263736 0.0787196 9.87049e-17)
(0.23981 0.0607723 2.54702e-18)
(0.210984 0.0418073 -9.51837e-18)
(0.176612 0.0214331 -1.59565e-18)
(0.137386 -0.00112984 -1.3122e-17)
(0.0962644 -0.0266608 4.26533e-17)
(0.0571414 -0.0564383 -3.78963e-17)
(0.0209765 -0.0912176 -2.3968e-17)
(-0.0125534 -0.12538 -2.6396e-17)
(-0.0461071 -0.1597 -6.39947e-17)
(-0.0825201 -0.194149 -2.35916e-17)
(-0.1213 -0.228556 -4.85307e-18)
(-0.15792 -0.259839 1.93416e-17)
(-0.186183 -0.284468 5.11225e-17)
(-0.201701 -0.300504 3.31243e-17)
(-0.204289 -0.306829 5.05718e-17)
(-0.198429 -0.304789 6.18094e-17)
(-0.196768 -0.299988 4.60243e-17)
(-0.255997 -0.23204 6.01946e-17)
(-0.282426 -0.279734 4.92868e-17)
(-0.315186 -0.316366 3.65417e-17)
(-0.311833 -0.334704 4.6071e-17)
(-0.255264 -0.321296 4.17091e-17)
(-0.151934 -0.271404 2.56603e-17)
(-0.0222501 -0.193391 2.46279e-17)
(0.097025 -0.109739 3.27672e-17)
(0.188858 -0.0403836 2.9295e-17)
(0.259205 0.0104994 1.29929e-17)
(0.31865 0.0437625 2.00497e-17)
(0.384253 0.0624347 1.30096e-17)
(0.466179 0.0725506 1.6381e-17)
(0.563963 0.082094 9.35206e-18)
(0.669642 0.0969119 6.3503e-18)
(0.774754 0.119166 5.96579e-18)
(0.873784 0.14911 4.15839e-18)
(0.963253 0.187077 4.37296e-18)
(1.04063 0.233393 3.05125e-18)
(1.10365 0.287771 -1.78674e-19)
(1.14992 0.348809 4.28568e-18)
(1.17697 0.41356 4.25356e-18)
(1.18291 0.477586 -7.10256e-19)
(1.16745 0.535734 2.93647e-18)
(1.13255 0.583243 5.79579e-18)
(1.08231 0.616751 3.95455e-18)
(1.02222 0.634842 3.68964e-18)
(0.958012 0.638244 3.81228e-18)
(0.894829 0.629537 6.54491e-18)
(0.836877 0.612289 6.5193e-18)
(0.791018 0.593151 7.46471e-18)
(0.729776 0.600083 5.05165e-18)
(0.683756 0.577049 9.71802e-18)
(0.622136 0.571443 4.40645e-18)
(0.571636 0.538928 7.00687e-18)
(0.510658 0.517597 6.116e-18)
(0.459563 0.472751 3.7253e-18)
(0.403056 0.434213 2.73307e-18)
(0.356516 0.376114 -5.32049e-18)
(0.309589 0.320696 -1.08841e-17)
(0.273085 0.250452 -4.09383e-19)
(0.240903 0.180323 -1.33318e-17)
(0.218773 0.100977 6.69863e-19)
(0.204879 0.0208253 -8.40213e-18)
(0.201113 -0.0629494 -7.19121e-18)
(0.207595 -0.145981 -2.22808e-17)
(0.223841 -0.22983 -2.92516e-18)
(0.251917 -0.307805 4.24569e-18)
(0.285802 -0.387038 7.05945e-18)
(0.332196 -0.453119 2.56034e-17)
(0.380745 -0.522926 1.43787e-17)
(0.441763 -0.572661 1.62373e-17)
(0.499858 -0.629787 1.65134e-17)
(0.570251 -0.660925 1.62944e-17)
(0.632436 -0.703824 1.45962e-17)
(0.707075 -0.716484 1.37593e-17)
(0.768277 -0.745888 1.36173e-17)
(0.843196 -0.742185 1.45331e-17)
(0.899807 -0.760952 1.40494e-17)
(0.97412 -0.745148 1.69901e-17)
(1.03275 -0.759263 1.66268e-17)
(1.108 -0.771036 1.58458e-17)
(1.19179 -0.773815 1.53242e-17)
(1.27973 -0.76325 1.6341e-17)
(1.36671 -0.735843 2.23493e-17)
(1.44759 -0.690325 2.63187e-17)
(1.51771 -0.627589 1.4249e-17)
(1.57388 -0.550851 2.87644e-17)
(1.61471 -0.464031 3.10944e-17)
(1.64087 -0.3724 3.9125e-17)
(1.65349 -0.279676 1.27396e-17)
(1.65526 -0.191205 2.0478e-17)
(1.6497 -0.108713 4.64665e-18)
(1.63779 -0.0334496 1.24396e-17)
(1.6212 0.0341017 -1.05022e-18)
(1.6014 0.0950189 1.20446e-17)
(1.57994 0.149568 7.43451e-18)
(1.55775 0.200577 5.14198e-18)
(1.53513 0.246845 1.90288e-17)
(1.51266 0.293101 -3.32404e-18)
(1.48891 0.334128 1.06164e-17)
(1.46603 0.378969 1.64223e-17)
(1.44018 0.415158 -3.88382e-19)
(1.41707 0.459875 -4.80636e-19)
(1.38869 0.490069 9.46799e-18)
(1.36799 0.538406 -1.54783e-18)
(1.33649 0.561773 6.21804e-18)
(1.32154 0.619845 -1.16779e-17)
(1.28439 0.635197 -3.62032e-19)
(1.27947 0.710626 -1.70013e-18)
(1.23102 0.716579 4.47808e-18)
(1.17225 0.720787 -7.24313e-18)
(1.10791 0.72321 4.87969e-18)
(1.03889 0.721889 -1.68744e-17)
(0.966417 0.715801 -1.63396e-18)
(0.891743 0.704994 -2.86514e-17)
(0.816213 0.690023 -1.74849e-17)
(0.741003 0.671219 -3.07324e-17)
(0.667028 0.649185 -5.28773e-18)
(0.595446 0.624814 -4.11552e-17)
(0.527052 0.599348 -1.54323e-17)
(0.461852 0.573559 -5.54341e-17)
(0.399887 0.547345 -2.25753e-17)
(0.3412 0.520382 -6.40745e-18)
(0.28488 0.492057 3.32753e-18)
(0.228915 0.461611 -4.46244e-17)
(0.172342 0.427596 -3.06002e-17)
(0.116397 0.388636 -6.73697e-17)
(0.062089 0.344724 -5.29304e-17)
(0.00992408 0.296604 -6.07091e-18)
(-0.039625 0.246696 -1.02884e-17)
(-0.0844636 0.196581 3.17972e-18)
(-0.123028 0.146413 -2.41965e-17)
(-0.155046 0.0949172 -1.17757e-17)
(-0.182429 0.0431083 -3.57786e-18)
(-0.207419 -0.0081345 2.29054e-18)
(-0.228597 -0.0589439 1.70842e-17)
(-0.244087 -0.105578 5.11536e-17)
(-0.248239 -0.1498 4.59227e-17)
(-0.252174 -0.168034 6.49748e-17)
(-0.285981 -0.00975049 3.49739e-17)
(-0.328556 -0.108241 3.51174e-17)
(-0.369093 -0.188051 4.05963e-17)
(-0.350794 -0.250127 5.04953e-17)
(-0.272142 -0.285202 5.44529e-17)
(-0.1483 -0.281871 3.57582e-17)
(0.0178709 -0.237176 1.34257e-17)
(0.186279 -0.16752 1.74468e-17)
(0.316597 -0.098287 1.91334e-17)
(0.414751 -0.0392518 1.58679e-17)
(0.493427 0.00949493 1.67378e-17)
(0.568821 0.0474188 1.57792e-17)
(0.653399 0.0755728 1.79001e-17)
(0.747925 0.0986493 5.76667e-18)
(0.845952 0.121564 6.23421e-18)
(0.939855 0.147346 6.89014e-18)
(1.02466 0.17748 8.40739e-18)
(1.09779 0.213095 8.78612e-18)
(1.1576 0.255197 1.2727e-17)
(1.20229 0.304134 1.71185e-18)
(1.22976 0.358863 2.22836e-18)
(1.23804 0.416474 5.24026e-18)
(1.22618 0.472597 2.54702e-18)
(1.19515 0.522406 6.03184e-18)
(1.148 0.561712 5.06481e-18)
(1.08945 0.587806 5.52121e-18)
(1.02488 0.59978 6.38439e-18)
(0.959421 0.598529 6.64476e-18)
(0.897597 0.586382 6.61945e-18)
(0.842877 0.566588 5.91297e-18)
(0.801195 0.546151 6.31981e-18)
(0.743655 0.555418 2.84595e-18)
(0.702225 0.532683 2.39861e-18)
(0.644561 0.529737 7.00309e-18)
(0.598307 0.49878 4.67127e-18)
(0.541227 0.480736 9.78538e-18)
(0.493704 0.438625 6.52983e-18)
(0.440571 0.404043 1.22998e-17)
(0.396744 0.34962 5.60641e-18)
(0.352396 0.298715 -1.64888e-17)
(0.317782 0.232831 -1.32956e-17)
(0.287449 0.167564 -5.57146e-19)
(0.266452 0.0928896 -1.61798e-17)
(0.253278 0.0176392 -8.85732e-18)
(0.249787 -0.0613397 -2.28797e-17)
(0.256149 -0.139482 -9.93743e-18)
(0.272041 -0.218452 2.22744e-17)
(0.299119 -0.291601 8.6935e-18)
(0.331633 -0.365717 1.86026e-17)
(0.376064 -0.427144 2.18059e-17)
(0.422574 -0.491989 8.83714e-18)
(0.480441 -0.537309 1.66708e-17)
(0.535551 -0.590055 1.62009e-17)
(0.601808 -0.617099 9.97349e-18)
(0.660109 -0.656676 1.03986e-17)
(0.73006 -0.665806 1.03512e-17)
(0.786581 -0.693237 1.43026e-17)
(0.856803 -0.686598 1.63784e-17)
(0.908194 -0.704734 1.72206e-17)
(0.97819 -0.686379 2.24676e-17)
(1.03217 -0.701462 2.07246e-17)
(1.10399 -0.715245 1.46269e-17)
(1.18622 -0.720604 2.17726e-17)
(1.27494 -0.713204 8.15391e-18)
(1.36523 -0.689643 2.07321e-17)
(1.45211 -0.64833 9.70131e-18)
(1.53069 -0.589539 2.30069e-17)
(1.59675 -0.515771 2.60568e-17)
(1.64766 -0.430619 3.4241e-17)
(1.68233 -0.339491 2.00496e-17)
(1.70186 -0.246472 2.55208e-17)
(1.70872 -0.157113 5.00792e-18)
(1.70563 -0.0733687 3.36293e-18)
(1.69446 0.00327371 4.35788e-18)
(1.67836 0.072551 7.56277e-18)
(1.6585 0.135291 1.74423e-17)
(1.63799 0.192597 1.34338e-17)
(1.61548 0.246473 1.8139e-17)
(1.59431 0.296709 9.36823e-18)
(1.57004 0.346441 5.03773e-18)
(1.54833 0.392143 1.48994e-17)
(1.52121 0.440344 1.54565e-17)
(1.49878 0.481921 1.75685e-17)
(1.46798 0.530881 1.24726e-17)
(1.44551 0.567896 2.06219e-17)
(1.41056 0.620595 1.66426e-17)
(1.38793 0.652149 2.49729e-17)
(1.34787 0.712634 1.4526e-17)
(1.3235 0.736633 1.92101e-17)
(1.27829 0.810729 1.32439e-17)
(1.24764 0.828113 2.35521e-17)
(1.2128 0.853621 1.17837e-17)
(1.1742 0.883772 2.6122e-17)
(1.13152 0.914621 2.10236e-17)
(1.08435 0.943283 2.1677e-17)
(1.03219 0.967992 1.91982e-17)
(0.974946 0.987857 1.87799e-17)
(0.913287 1.00248 9.56211e-18)
(0.848102 1.01181 2.82742e-17)
(0.780041 1.016 1.9123e-18)
(0.70975 1.01525 2.8493e-17)
(0.638629 1.00958 -9.22994e-18)
(0.567638 0.998775 2.89135e-17)
(0.496733 0.982068 1.54972e-17)
(0.425264 0.959535 2.59324e-17)
(0.354724 0.931145 7.53876e-18)
(0.286218 0.896541 1.57878e-18)
(0.219222 0.854708 1.71147e-18)
(0.152769 0.806167 -8.24684e-18)
(0.0902295 0.750852 -2.12033e-17)
(0.0314363 0.690435 -1.27354e-17)
(-0.0243268 0.625414 9.43489e-18)
(-0.0746887 0.556636 1.8695e-17)
(-0.118023 0.487431 2.49089e-17)
(-0.159056 0.420209 3.73809e-17)
(-0.20076 0.357066 1.62752e-17)
(-0.22974 0.28881 2.68344e-17)
(-0.248502 0.228261 1.62585e-17)
(-0.254356 0.146736 2.45542e-17)
(-0.269027 0.118634 2.87739e-17)
(-0.229142 0.271235 1.93946e-17)
(-0.341881 0.155665 1.92691e-17)
(-0.421381 0.0431873 4.18748e-17)
(-0.386231 -0.0616048 6.39051e-17)
(-0.272193 -0.145247 6.39176e-17)
(-0.134965 -0.198083 4.33952e-17)
(0.0458436 -0.208772 2.2769e-17)
(0.258404 -0.177779 1.22543e-17)
(0.437825 -0.129635 1.23208e-17)
(0.571794 -0.0793359 1.20901e-17)
(0.674832 -0.0272741 1.35112e-17)
(0.760646 0.0229825 1.60095e-17)
(0.842621 0.0668158 1.7914e-17)
(0.924722 0.103858 2.75121e-18)
(1.00394 0.135927 4.35541e-18)
(1.07606 0.165418 1.50437e-18)
(1.13839 0.194878 1.20746e-17)
(1.18981 0.22681 1.14516e-17)
(1.22955 0.263449 7.97911e-18)
(1.25623 0.306069 8.31027e-18)
(1.26786 0.354179 4.67992e-18)
(1.2626 0.405237 6.38602e-18)
(1.23978 0.455142 4.77663e-18)
(1.20064 0.499304 5.79006e-18)
(1.14836 0.533713 9.06031e-18)
(1.08745 0.555753 9.66062e-18)
(1.02281 0.564489 1.307e-17)
(0.959033 0.560627 1.03036e-17)
(0.900196 0.54625 1.33366e-17)
(0.849102 0.524525 1.27672e-17)
(0.811058 0.50284 1.36847e-17)
(0.757468 0.514186 9.79838e-18)
(0.719791 0.49178 4.70942e-18)
(0.666199 0.491214 2.49188e-18)
(0.623501 0.461763 1.94613e-19)
(0.570329 0.446628 1.43561e-18)
(0.525922 0.40708 1.16393e-17)
(0.476131 0.375979 1.12849e-17)
(0.434707 0.324965 1.27684e-17)
(0.392906 0.278079 -7.03207e-18)
(0.359939 0.216273 -1.94173e-17)
(0.33149 0.155489 3.67656e-19)
(0.311613 0.085302 -6.39935e-19)
(0.299205 0.0146908 -6.31254e-18)
(0.295988 -0.0596793 -9.51016e-18)
(0.302208 -0.133155 9.31397e-18)
(0.317784 -0.20744 1.43402e-17)
(0.343703 -0.275993 3.37702e-18)
(0.374944 -0.345252 2.35279e-17)
(0.417399 -0.402447 1.54635e-17)
(0.461955 -0.462554 1.1743e-17)
(0.51667 -0.504 7.66048e-18)
(0.569016 -0.552518 5.77692e-18)
(0.631252 -0.576099 1.14798e-17)
(0.686157 -0.612453 1.70751e-17)
(0.751446 -0.618617 1.61616e-17)
(0.80411 -0.644084 2.22299e-17)
(0.869369 -0.634896 2.26608e-17)
(0.916536 -0.652373 2.6085e-17)
(0.981666 -0.631753 2.98194e-17)
(1.03159 -0.647873 2.55877e-17)
(1.0997 -0.663262 2.89355e-17)
(1.17894 -0.670403 2.78372e-17)
(1.26583 -0.664727 2.494e-17)
(1.35556 -0.642924 1.855e-17)
(1.44323 -0.603277 1.08736e-17)
(1.52389 -0.54613 1.84379e-17)
(1.59289 -0.473414 1.0575e-17)
(1.6468 -0.389285 2.28073e-17)
(1.68395 -0.298337 9.69236e-18)
(1.70475 -0.206553 1.18528e-17)
(1.71166 -0.117604 1.75441e-17)
(1.70724 -0.0342728 2.49382e-17)
(1.69407 0.0418143 9.59566e-18)
(1.67551 0.11079 4.21643e-17)
(1.65309 0.173367 3.26704e-17)
(1.62964 0.231331 1.60429e-17)
(1.60361 0.285513 1.59693e-17)
(1.5785 0.337098 1.62053e-17)
(1.54891 0.386649 1.50157e-17)
(1.52229 0.433855 1.50892e-17)
(1.48762 0.480811 1.89111e-17)
(1.45993 0.524271 3.86032e-18)
(1.41864 0.570507 7.21581e-18)
(1.39078 0.609916 5.42167e-18)
(1.34061 0.657222 -4.22658e-18)
(1.31306 0.690727 6.91799e-18)
(1.25139 0.740879 -1.56664e-18)
(1.22476 0.765184 5.97668e-18)
(1.15048 0.823416 -2.12867e-18)
(1.1229 0.84017 -8.57662e-18)
(1.09543 0.87063 -4.56434e-18)
(1.06668 0.909854 -2.43492e-18)
(1.03533 0.952833 3.92275e-18)
(1.00019 0.995676 8.97967e-18)
(0.961048 1.03613 2.99066e-18)
(0.918053 1.07328 3.39108e-17)
(0.870843 1.10721 5.38699e-18)
(0.819403 1.13771 1.65606e-17)
(0.765121 1.16399 3.10569e-17)
(0.708632 1.18547 3.52012e-17)
(0.649645 1.20132 2.63688e-17)
(0.588235 1.21137 4.19073e-17)
(0.526412 1.21446 1.22787e-17)
(0.464108 1.20906 2.92539e-17)
(0.402003 1.19383 2.56239e-17)
(0.340192 1.17144 3.1205e-17)
(0.282585 1.14114 1.93133e-17)
(0.224967 1.10328 2.23446e-17)
(0.168114 1.05692 1.57019e-18)
(0.109515 1.00649 1.78664e-17)
(0.0603555 0.950647 -1.61013e-17)
(0.00734012 0.888816 3.92475e-17)
(-0.0472215 0.81845 8.36841e-18)
(-0.111332 0.737139 2.46056e-17)
(-0.150666 0.655306 -3.60426e-18)
(-0.167521 0.562911 2.3968e-17)
(-0.164386 0.496958 2.43348e-17)
(-0.151593 0.402734 3.81076e-17)
(-0.17227 0.401332 3.11658e-17)
(-0.308589 0.467376 2.26482e-17)
(-0.353667 0.360298 3.41747e-17)
(-0.340416 0.249229 5.6893e-17)
(-0.262669 0.136954 7.10947e-17)
(-0.155303 0.0323336 6.7748e-17)
(-0.0492826 -0.0586443 4.93454e-17)
(0.102472 -0.117307 2.64647e-17)
(0.321838 -0.130254 9.45467e-18)
(0.535135 -0.114367 8.05192e-18)
(0.700215 -0.0854936 2.96357e-18)
(0.826757 -0.0465473 8.61233e-19)
(0.924789 0.00148733 -3.56989e-18)
(1.00389 0.0517285 6.68577e-18)
(1.07128 0.0980948 4.73008e-18)
(1.12888 0.137777 5.91507e-18)
(1.17682 0.171126 7.50932e-18)
(1.2156 0.200584 1.13186e-17)
(1.24596 0.229627 9.88166e-18)
(1.26794 0.261657 8.50166e-18)
(1.28031 0.298907 9.48911e-18)
(1.28089 0.341549 9.38195e-18)
(1.26755 0.387528 1.05717e-17)
(1.2393 0.433027 1.16272e-17)
(1.19706 0.473541 1.44985e-17)
(1.14363 0.50496 1.7638e-17)
(1.08311 0.524506 1.44075e-17)
(1.02003 0.531066 1.63582e-17)
(0.958758 0.525218 1.32346e-17)
(0.903117 0.509041 1.55889e-17)
(0.855422 0.485763 1.32623e-17)
(0.820575 0.463095 1.26539e-17)
(0.770814 0.476029 1.54183e-17)
(0.736424 0.454062 1.21328e-17)
(0.686694 0.455415 9.25776e-18)
(0.647208 0.427486 4.42512e-18)
(0.597786 0.414866 -4.80243e-18)
(0.556295 0.377797 -4.19448e-18)
(0.509768 0.349816 3.76235e-18)
(0.470603 0.302011 3.34574e-18)
(0.431276 0.258785 6.7738e-18)
(0.39978 0.200776 -1.15983e-17)
(0.373123 0.144147 -5.32079e-18)
(0.35437 0.0782187 -2.78487e-18)
(0.342739 0.0120088 6.09761e-18)
(0.339805 -0.0579674 -1.30273e-17)
(0.345884 -0.126998 1.01642e-17)
(0.361127 -0.196823 3.38335e-18)
(0.385829 -0.260972 5.42589e-18)
(0.415858 -0.325693 7.31156e-18)
(0.456382 -0.37892 8.61875e-18)
(0.498956 -0.434537 2.73669e-18)