/*--------------------------------*- C++ -*----------------------------------*\
| =========                 |                                                 |
| \\      /  F ield         | OpenFOAM: The Open Source CFD Toolbox           |
|  \\    /   O peration     | Version:  3.0.1                                 |
|   \\  /    A nd           | Web:      www.OpenFOAM.org                      |
|    \\/     M anipulation  |                                                 |
\*---------------------------------------------------------------------------*/
FoamFile
{
    version     2.0;
    format      ascii;
    class       volScalarField;
    location    "101.263725316707081";
    object      p;
}
// * * * * * * * * * * * * * * * * * * * * * * * * * * * * * * * * * * * * * //

dimensions      [0 2 -2 0 0 0 0];

internalField   nonuniform List<scalar> 
8400
(
0.000534945527026
0.000374131232084
0.000246884584108
0.000233888083838
0.000363260676257
0.000569659903651
0.000796518216447
0.00102830560248
0.00129092926488
0.00157956812923
0.00187508357142
0.0021618435926
0.00243025734554
0.00266731227883
0.00287265214455
0.00305541389153
0.00322006163583
0.00336418924461
0.00350550379261
0.00365325439735
0.00382100370913
0.00401611525696
0.00424040505523
0.00449058085585
0.00475426600926
0.00500668311213
0.00521019752757
0.00532739774479
0.00535159703831
0.00531316012364
0.00512098669806
0.00449189514691
0.00410125191986
0.00351592886853
0.00307960685476
0.00255526970932
0.00213744021236
0.00169343650331
0.00133154271497
0.000983606410039
0.00070402907915
0.000463490915104
0.000284344866353
0.000156937439918
8.65787341157e-05
7.24162010051e-05
0.00011414340073
0.000212467565747
0.00036093449262
0.00056853103071
0.000812527021151
0.00112042496926
0.00144082053382
0.0018339642532
0.00220259625336
0.00266125688927
0.00303971980568
0.00354064078609
0.00386457592951
0.00438822088183
0.00450459891618
0.00446465119313
0.00435947686028
0.0041661596761
0.00389729917215
0.0035865534866
0.00326279674093
0.00294201390601
0.00263044194692
0.0023281572735
0.00203836624674
0.00174570377425
0.00144160998942
0.00112494171571
0.000798065216207
0.000470203575324
0.000156264131876
-0.00013109264173
-0.000380032774362
-0.000579412638741
-0.000728128126732
-0.000829037922181
-0.000888486048387
-0.000911232583023
-0.000901357999854
-0.000875070547541
-0.000829307894318
-0.000750211891667
-0.00064177447628
-0.000522672236424
-0.000415266820995
-0.000371155515792
-0.000385714047917
-0.000362013111605
-0.00010747647609
0.000561332036689
0.00134406296705
0.00133887395698
0.00033081073427
-0.000704082360401
-0.00120495558844
-0.00133168657665
-0.00125668330153
-0.00110750267331
-0.000948919450486
-0.000731039385731
-0.000446811014578
-0.0001512883801
0.000125006116826
0.000344371467374
0.000488425780778
0.000559470062589
0.000574253602995
0.00056445047203
0.000558500668359
0.000572151415376
0.000605757260821
0.000645352166257
0.000666973938741
0.00062995879148
0.00212762231614
0.0019431653938
0.00177843359786
0.00176722128155
0.00210358485296
0.00275586715542
0.00350688655398
0.00415019528413
0.00469659417428
0.00523625246353
0.00580928152516
0.00637454772293
0.00690080022322
0.00736231513329
0.00775503098025
0.00809276424258
0.0084039295733
0.00869164141835
0.00896386772917
0.00922617513076
0.00949941486882
0.00978838584865
0.0100777042323
0.010333523629
0.0105074263333
0.0105518247665
0.0104412220622
0.0101881691934
0.0098377769479
0.0094304641794
0.00896104372895
0.0079130893508
0.00731287408588
0.00632990617137
0.00565612114151
0.00476452069103
0.0040926215819
0.00332671733895
0.0027224706953
0.00211330564811
0.00163250072499
0.00120575469281
0.000892324684911
0.000666044449759
0.000541704585366
0.00051922063355
0.000597781120298
0.000780195249246
0.00104820522849
0.00142586091617
0.00185434934309
0.00240557398842
0.00295310658755
0.00364810235312
0.00425794827129
0.00506205446118
0.00566723542396
0.00654511111238
0.00706758446385
0.00799549273745
0.00836830605549
0.00864917655698
0.00884881883594
0.0089219168886
0.00882529256878
0.00855084393457
0.00812649252139
0.00759711398621
0.00700465514567
0.00637521229446
0.0057224494182
0.00503325063599
0.00430554810213
0.00353856753344
0.00274584124046
0.00195505419389
0.001204716304
0.000537192094898
-2.1860781577e-05
-0.000453311415015
-0.000768246001587
-0.00101362848609
-0.00124530628848
-0.0015031385368
-0.00180157893485
-0.0020598573547
-0.00214478043817
-0.00197028948263
-0.00149598995413
-0.000821344583497
-0.000288522613236
-0.000255910161616
-0.00055396401092
-0.000704980146689
-0.000778248578772
-0.00104299759628
-0.00155249095554
-0.00225534213629
-0.00299712720026
-0.00353869298267
-0.00384253299705
-0.00391175421066
-0.00371600828847
-0.00321967941275
-0.0024443818399
-0.00146813959538
-0.000412600318493
0.000604396700277
0.00147174838181
0.00209147181454
0.0024395117972
0.00253826790043
0.00246158958012
0.00231808226093
0.00217297723995
0.00207771992154
0.00205115678519
0.00207621665142
0.00212559522786
0.00215294155442
0.00424957925569
0.00411389100084
0.00424186583001
0.00457775599664
0.00535707541286
0.00640808139913
0.00756418554053
0.00848005618301
0.0091284825645
0.00961945631925
0.0101337143083
0.0106630827127
0.0111717894935
0.0116261166788
0.0120257874789
0.0123669195722
0.0126712869066
0.0129513679456
0.0132190600427
0.0134512978108
0.013642565804
0.0137873103607
0.0138550235291
0.0138053438955
0.013601814084
0.0132286436001
0.0127026610889
0.0120702286084
0.0113874614801
0.0107002745635
0.0100747320447
0.00908246796168
0.00840377074156
0.0074412374661
0.00670060741137
0.00578740002416
0.00505101874049
0.00423206419045
0.0035669186893
0.0028927934745
0.00235822310655
0.00187432583341
0.00152278815913
0.00126426293464
0.00112243770797
0.00109750959282
0.00118783950673
0.00140011489454
0.0017044990443
0.00213607646185
0.00261534373501
0.00323043906292
0.00383729772001
0.00458856884138
0.00526190425164
0.00609802189443
0.00676915599577
0.00764643444445
0.00824766056515
0.00914795886971
0.00967855446001
0.0102340893049
0.0107537925395
0.0111855263545
0.0114656283317
0.0115427188556
0.0113963520591
0.0110391934561
0.0105066212827
0.00983689814242
0.00906222968339
0.00819360748963
0.00724037815393
0.00621278322365
0.00513458545487
0.00404381207657
0.00299379722537
0.00204258750525
0.00123799024928
0.000605894813498
0.000108555757289
-0.000333633697345
-0.000810990515815
-0.00137175696165
-0.00193247702827
-0.00230846869127
-0.00248227588158
-0.00256910588402
-0.00234798037899
-0.00128682360476
0.000444906132146
0.00198730879918
0.00225257734747
0.00131991880363
-5.98358713e-05
-0.00147628768129
-0.00278291155185
-0.00396659726391
-0.00498153159581
-0.0057346674241
-0.00614535020505
-0.00611937065163
-0.00560825646068
-0.00461789999525
-0.00318410310187
-0.00144797408832
0.000342195343078
0.00199464278595
0.00333064586634
0.0042156192191
0.00460834792468
0.0045842606762
0.00431410916702
0.00398006924099
0.00370558022558
0.0035564867404
0.00354812947653
0.00364729745927
0.00380261316704
0.00400781428561
0.00764700719156
0.00768395878754
0.00832993701654
0.00885820132392
0.00991652871823
0.0109012046513
0.0119647304071
0.0126690705054
0.0131513382587
0.0134164686423
0.0137204166115
0.0140651248946
0.0144413707965
0.0147918221546
0.0151216319624
0.0154092899803
0.015657133661
0.0158656399051
0.0160471471775
0.0161661959738
0.0161868007655
0.0161032685119
0.0158849422455
0.015508213213
0.014964140754
0.0142689079679
0.0134637421351
0.0126044688854
0.0117477232357
0.0109426732033
0.0102779610119
0.00941154732442
0.00874313947012
0.00787903331906
0.00716185080717
0.00631320793932
0.00559923505107
0.00481371186974
0.0041636076302
0.00349987508691
0.00297168591648
0.00248472513866
0.00213462223003
0.00187288893313
0.00172921831294
0.00170342006495
0.00179365221907
0.00201042984375
0.00231483325161
0.00274761925751
0.00322125154763
0.00382670244483
0.00442101060541
0.00514184596858
0.00579675430982
0.00657339210484
0.00722722631707
0.00801331008514
0.00861298176834
0.00939573865768
0.00997478673076
0.0106577406661
0.0113612452461
0.0120320684571
0.0126054136155
0.0130154465741
0.0132114783862
0.0131688137379
0.012891878239
0.012403930193
0.0117360947829
0.0109142898083
0.0099599602483
0.00889093406414
0.00773270191121
0.0065196638415
0.00529838598766
0.00412585621641
0.00305150822472
0.00210165719774
0.00123975212172
0.000388264728374
-0.000520616794177
-0.00139284097277
-0.00187909832842
-0.00155538417551
-0.000389471895421
0.00100838166319
0.0017249089824
0.00136480993427
-0.000109148468097
-0.00175574524329
-0.0018580040778
-0.00151208473508
-0.00137335486667
-0.00177158429316
-0.00265835349122
-0.00385998729673
-0.00514427529238
-0.00625984010188
-0.00704177222634
-0.0073903668482
-0.00720896609893
-0.00639199106791
-0.00494574389168
-0.00302404616047
-0.000873014349962
0.00122140379436
0.00306116393068
0.00446474243364
0.00530510661778
0.005598902911
0.00549444360053
0.00519440432276
0.00491995945548
0.00482584919175
0.00499840383198
0.00541952280511
0.00603850109217
0.00681224756042
0.0110327894654
0.0115108078717
0.0123592182975
0.0127460306556
0.0136014459071
0.0141580760346
0.0148296599992
0.0151880953842
0.0154688360143
0.0155904695937
0.0157776325418
0.0160066533707
0.0162973575236
0.0165844612477
0.0168667304805
0.0171193436774
0.0173315470933
0.0174875456263
0.0175771127537
0.0175890566469
0.0174720494708
0.017204266549
0.0167739655839
0.0161749231831
0.0154230126181
0.0145541838687
0.0136193550171
0.0126754799937
0.0117762794856
0.0109697514419
0.0103428861833
0.0095391104928
0.00893134222659
0.00812537517975
0.00746832365908
0.00667106658623
0.00600701496528
0.00526296516274
0.00464962728157
0.00401491760601
0.00351067245901
0.00303829155031
0.00270063264704
0.00244638906941
0.00230600108504
0.00227976737947
0.00236629374803
0.00257763035509
0.00287040646534
0.00328571575331
0.0037367118612
0.00431375993401
0.0048734108399
0.00555447717518
0.00616204851955
0.00688927765813
0.00748749094465
0.00821714762551
0.00876354234048
0.00948428192866
0.0100334179482
0.0107261731962
0.0114823109612
0.0122535498348
0.0129804122042
0.013597577537
0.01404412242
0.0142748504921
0.0142698638004
0.0140330414937
0.0135861088078
0.0129566398231
0.0121726637783
0.0112548379147
0.0102247978702
0.00910116839892
0.00790921768752
0.00668078995848
0.00544335787307
0.00421183984011
0.00295825494402
0.00164041423957
0.000213839238959
-0.00118580370951
-0.00224368270116
-0.00239414674026
-0.00131921734415
0.000991761281237
0.0036899356469
0.00662944313267
0.00919924462925
0.00905107066145
0.00669660459372
0.00344588950378
0.000494638952901
-0.00177943112616
-0.00345694129324
-0.00479975700339
-0.00604287267842
-0.0072327369544
-0.00821885545665
-0.00881320003068
-0.00891127068987
-0.00844858579869
-0.00735293663642
-0.0056045055318
-0.00333199966581
-0.000785022792568
0.0017996914871
0.0041435049429
0.00591541298022
0.00700266956032
0.00752408958697
0.00760365922612
0.0073978722442
0.00720116932458
0.00737187236434
0.00801089583694
0.00893428140836
0.00999036941619
0.0111650368354
0.0122718624332
0.013176786847
0.0137919825019
0.014349527144
0.0149107286307
0.0153018763402
0.0156785720533
0.0159017737601
0.0161156783596
0.0163426214432
0.0166200262128
0.0169262926251
0.0172284802292
0.0175172978448
0.0177772616771
0.0179917954682
0.0181356788426
0.0181915969341
0.0181436363277
0.0179491892226
0.0175834437147
0.017041202451
0.0163322610846
0.0154874638456
0.0145535869559
0.0135844281621
0.0126339656381
0.0117534836252
0.0109857343441
0.0104107214639
0.00965514041896
0.00910400932727
0.00834920161706
0.00774269317167
0.00699489218329
0.00637289657487
0.00567149880182
0.00509133625968
0.00448973418351
0.00400990469881
0.00355704389815
0.00323150002932
0.0029878075351
0.00285150622179
0.0028249659276
0.00290788453763
0.0031107769919
0.00339040034808
0.00378295980511
0.00421170635196
0.00475664081293
0.0052848925356
0.0059250419972
0.00649160641604
0.00717261887547
0.00772191955586
0.00840526683145
0.00889861525165
0.00957645064909
0.0100784294071
0.0107352951969
0.0114770035038
0.0122632480423
0.0130411504563
0.0137514874756
0.0143340545049
0.0147381085925
0.0149318392687
0.0149084975972
0.0146836820289
0.0142852495412
0.0137434793511
0.0130816407692
0.0123159180866
0.0114472844967
0.0104801609777
0.00941205571161
0.00825206844228
0.00698937839223
0.005623007671
0.00412356392127
0.00250818628393
0.000821151860493
-0.000746183201497
-0.00191614248411
-0.00230614751639
-0.00181742697732
-0.000466477505406
0.000835324486661
0.00383374095244
0.00753607997896
0.0109326609967
0.0124776889975
0.0121821916556
0.0104685233286
0.00795764329911
0.00513661307433
0.00229477037402
-0.000428526562086
-0.00296334189769
-0.00524294518228
-0.00713509242928
-0.00837889416915
-0.00865061533185
-0.00792258049915
-0.00641175914973
-0.00431148995518
-0.00165478640028
0.00128419239859
0.00405328927041
0.00645201853431
0.00836400560817
0.00954358807228
0.00986763552197
0.00958479484851
0.00922409012323
0.0092548567724
0.00971065920099
0.0103816066444
0.00894002818858
0.0101354864241
0.0113182389788
0.0125642271378
0.0130245889425
0.0138832007801
0.0143118460702
0.0149043962152
0.0152706251375
0.0156844192959
0.0160438188711
0.0164266771717
0.0168042856488
0.0171672068328
0.0175012204415
0.0177954811733
0.018036973269
0.0182037158888
0.0182665866108
0.0182024866602
0.0179882588647
0.0175950017369
0.0170157247139
0.0162733641481
0.0154050243124
0.0144629998151
0.0135011066074
0.01257198913
0.0117255086468
0.0109996349821
0.0104698801028
0.00976816831563
0.00926404516527
0.00856308489659
0.00799969641811
0.00730094577574
0.00671601720752
0.00605566491406
0.00550527922677
0.00493621262016
0.00448000895193
0.00404851344478
0.00373374845882
0.00350115820023
0.00336904457797
0.00334242917931
0.00342244911025
0.00361582540813
0.00388206950161
0.00425097599023
0.00465988175648
0.00517325947393
0.00567387660657
0.00627388767748
0.00680528357189
0.00743990452897
0.00794889416936
0.00858394883983
0.00903447904625
0.00966571756626
0.0101268014786
0.0107432826429
0.0114517852156
0.0122198449649
0.0129984860816
0.0137342554372
0.0143711758498
0.0148599910268
0.0151676931793
0.0152854557495
0.0152277916824
0.0150254332862
0.0147122123948
0.0143153032683
0.0138423629936
0.0132862596529
0.0126366911498
0.0118743746606
0.0109997630322
0.00998984719246
0.00887749639464
0.0076253941929
0.0063358431418
0.00493575531288
0.00368082052378
0.00241415745647
0.0016829371933
0.000967033403592
0.00120873300153
0.00105312249564
0.000879664236485
0.00079432188405
0.00234263345077
0.00468692549176
0.0070713756947
0.00885058737429
0.00973383688202
0.00967472157568
0.00877865845832
0.00722706045368
0.00524749886051
0.00307672259008
0.000921450078259
-0.00110585465495
-0.00309228768032
-0.00513069934391
-0.00665331773502
-0.00680449210549
-0.00531556840554
-0.00296692196591
-0.000592625892637
0.00190764553197
0.00493567469402
0.00786955070929
0.00966304656436
0.0101721400262
0.0099099545641
0.00931075831105
0.00878832561183
0.00863186059807
0.00762065856888
0.00788882366746
0.00860686520372
0.0105544723597
0.0113707027845
0.0122748983832
0.0129956927427
0.0137038783201
0.0143274623047
0.0148789767766
0.0154151962403
0.0159027517391
0.0163625970207
0.0167829935299
0.0171644910797
0.017498113044
0.0177752789341
0.0179740602936
0.0180676232002
0.0180253516334
0.0178245310014
0.0174410003648
0.0168685673521
0.0161322074247
0.0152734741173
0.014346903638
0.0134065093043
0.0125062746292
0.0116962565749
0.0110103015103
0.0105211588673
0.00987218917467
0.0094111783762
0.00876163412039
0.00823932814798
0.0075876064963
0.00703795598996
0.00641678685568
0.00589411282868
0.00535566692254
0.00492240258765
0.00451331553539
0.00420906174501
0.0039874170863
0.00385973829566
0.00383329458867
0.00391058146862
0.00409390286669
0.0043460528349
0.00469223177247
0.00508318659656
0.0055663536577
0.00604126679388
0.00660254811025
0.00710117922877
0.00769122813827
0.00816367355704
0.00875259524739
0.00916555171525
0.00975116324194
0.0101764099813
0.0107553407049
0.0114284072536
0.0121691813646
0.0129307755815
0.0136617007832
0.0143090395252
0.0148278943262
0.0151865835202
0.0153815878639
0.0154282106568
0.0153635554622
0.0152229169167
0.0150356094956
0.014802087081
0.0145201656773
0.0141659273984
0.0137347531989
0.0132076312359
0.0126078992392
0.0119297255331
0.0112332253647
0.0105064476127
0.00984866090825
0.00919639174787
0.00875188531046
0.00830132319218
0.0083311043689
0.00807503749512
0.00908540681439
0.00822263534969
0.00676283819624
0.00549959845719
0.00469694962348
0.004504484797
0.00482689910787
0.00542005959051
0.00600258761661
0.00634360337835
0.00629201109331
0.00580073820552
0.00491010429325
0.00372033447835
0.00234980489973
0.000932976067336
-0.000379949568644
-0.00145543419204
-0.00233620272399
-0.00319697780872
-0.00420486834668
-0.00474274975813
-0.00356170457163
-0.000545940681012
0.00264949749917
0.00488578132236
0.00683570820394
0.00880817144849
0.00952777163023
0.00883778791203
0.00797065946188
0.00782832289456
0.00777815104505
0.00695551649738
0.00821665048552
0.00988005146522
0.0108920111248
0.0117393810089
0.0125483186272
0.0133549287436
0.0140308245812
0.0146720091371
0.0152666244935
0.0157934527217
0.0162734442181
0.0167003677165
0.0170719005571
0.017385317339
0.0176204575794
0.0177514949639
0.0177453101314
0.0175753097623
0.0172197950692
0.0166746852628
0.0159623439517
0.0151263283044
0.0142228737604
0.0133092860363
0.012440426331
0.0116669666612
0.0110195772675
0.0105675283208
0.00996825338964
0.00954611511136
0.00894545608428
0.00846117279179
0.0078553251757
0.00733944016126
0.00675616382389
0.0062600769174
0.00574974656792
0.00533832736834
0.00495195717107
0.00465862776011
0.00444748305617
0.00432444188238
0.00429841493392
0.00437288443611
0.0045457333161
0.00478332839041
0.00510884845785
0.00548320854358
0.00593752629124
0.00638786074607
0.00691155189826
0.00737951508803
0.00792684701857
0.00836707929728
0.00891222536171
0.00929277788814
0.00983481188643
0.0102280530701
0.0107714799017
0.0114096380939
0.0121209208487
0.0128607325854
0.0135764178027
0.0142163245152
0.0147375690405
0.0151134600471
0.0153431491283
0.0154472393616
0.0154668038977
0.0154376893774
0.0153866125012
0.0153122110412
0.0152184285904
0.0150780974169
0.0149065781167
0.0146760883104
0.014454661466
0.014192515617
0.0140331105321
0.0138220522371
0.0138415121879
0.013711097374
0.0140186909539
0.0139519393431
0.0146720726387
0.0145317630182
0.0158020166011
0.0152920108169
0.014416698459
0.0133954267017
0.012328772491
0.0113187115979
0.0104393152269
0.00971551950994
0.0091307334405
0.00861697526053
0.0080975662159
0.00748737631967
0.00673775299384
0.00580983583525
0.00471394418162
0.00345961482473
0.00210549445293
0.000765601191418
-0.000405484214609
-0.00127887109421
-0.0017484846347
-0.00177711586556
-0.00149814060872
-0.00126747060209
-0.00136256153668
-0.00117257935291
0.000403624326868
0.00320698872581
0.00570766378325
0.0072142378234
0.00799569063332
0.0061620378637
0.00765564574609
0.00752286763621
0.00694649751872
0.00805735882142
0.00973781484658
0.0107160831883
0.0114807714971
0.012376544871
0.0131938794346
0.0138925174205
0.0145680844543
0.0151715581618
0.0157012798474
0.0161795830382
0.0165947458995
0.0169455447909
0.0172196875282
0.017388633662
0.0174238641737
0.0172924997549
0.0169736451983
0.0164633386187
0.0157808217817
0.0149727199579
0.0140961387239
0.0132111829707
0.0123755650956
0.011638767643
0.0110282319973
0.0106100670032
0.0100575771488
0.00967013344176
0.00911518511052
0.00866586763613
0.00810365452845
0.0076209719641
0.00707422255521
0.00660460390378
0.00612031945112
0.00572916262985
0.00536525404611
0.00508339325778
0.00488234754287
0.00476407976533
0.00473860760021
0.00481005214256
0.00497219891398
0.00519536918184
0.00550271908197
0.00586119560499
0.00628772033359
0.00671387192337
0.00720134183305
0.00764036470577
0.00814818918614
0.00855992755451
0.00906370299088
0.0094164459608
0.00991627696377
0.0102809242193
0.0107910743731
0.0113956518578
0.0120771561465
0.0127937951102
0.013491219848
0.0141183831712
0.0146314806163
0.0150091234258
0.0152517180798
0.0153867202063
0.0154533267483
0.0154877201542
0.0155094193328
0.0155275556182
0.01553855182
0.0155318868091
0.0155153791582
0.0154924538671
0.0155030082481
0.0155440415458
0.0156649762865
0.0158298357121
0.0160782472436
0.0163583865839
0.0166709424616
0.0170029675603
0.0172762704056
0.0174952570068
0.0177027232037
0.0175584111386
0.0172543975799
0.0168409104469
0.0163355297733
0.0157502738103
0.0150900785
0.0143716625302
0.0135941292911
0.0127660983442
0.0118689807155
0.0108952713459
0.00982405463004
0.00866880073999
0.00745008168115
0.00620505041329
0.0049815941321
0.00381669241267
0.00275129540208
0.00172356563018
0.000679355288993
-0.000407889075778
-0.00114420748436
-0.00131030682736
-0.000950954579287
-0.000481736063177
-0.000194211330174
5.12683452112e-05
0.000972149526
0.00269452272293
0.004765620183
0.00294940939705
0.00471579907219
0.00647828198066
0.00691068764619
0.00684123724663
0.00814968744647
0.0098090163706
0.0106509436407
0.0113788877319
0.0123099755216
0.0131133544685
0.0138150500399
0.0145019465227
0.0150962731521
0.015622496686
0.016091579961
0.0164846240876
0.016799859071
0.0170106550678
0.0170866690916
0.0169964261803
0.0167175797011
0.0162443771141
0.0155946090235
0.0148162463846
0.0139682665665
0.0131137975477
0.0123120708054
0.0116116273975
0.0110366755449
0.0106496979532
0.0101411731205
0.00978481727051
0.00927239671718
0.00885495675209
0.00833328590999
0.00788286049027
0.00737140614104
0.00692854698961
0.00646906284342
0.00609639761345
0.0057541804911
0.00548425252258
0.00529300214747
0.0051795749664
0.00515480159308
0.00522296383176
0.00537438517205
0.00558378623563
0.00587532548507
0.00621803180937
0.00661739714885
0.00701965826011
0.0074725578581
0.0078851846028
0.00835715570145
0.00874277791873
0.00920795876651
0.00953606092355
0.00999497210282
0.0103340286732
0.0108134160885
0.0113856331198
0.0120375196586
0.0127308728604
0.0134096550817
0.0140229560995
0.0145253969916
0.0149000244139
0.0151467007137
0.0152984311922
0.0153889949379
0.0154588256941
0.01551919823
0.015587291671
0.0156465689218
0.0157129257508
0.0157732657792
0.0158722441902
0.0159887814115
0.0161904256461
0.0163876628121
0.0167041236151
0.0168887690764
0.0172472894158
0.0172489209409
0.017569864777
0.0172499615456
0.0174589328834
0.0167882475066
0.0167265450042
0.0166202002662
0.0164526860498
0.0162312335313
0.0159248153737
0.0155329778012
0.0150302082777
0.0144332715163
0.0137388242583
0.0129685007114
0.0121277526236
0.0112016388512
0.0101980510248
0.00906636262081
0.0078556521775
0.00652897151061
0.00522956900706
0.00393325742962
0.00285787650082
0.00200732039339
0.00153360619106
0.00126589773908
0.00112129377769
0.00106187952504
0.0011401872102
0.0013841118639
0.00138008604314
0.00133009983669
0.00140093726933
0.00154856726221
0.00188786430591
0.00286451961788
0.0040980448055
0.00547967220976
0.00600575750477
0.00648501289659
0.00823895180228
0.00990835460891
0.0106097543847
0.0113565068435
0.0123014007334
0.013069914617
0.0137836593288
0.0144651859917
0.0150468176019
0.0155670847961
0.0160133619283
0.0163708253018
0.0166253096439
0.0167435474465
0.0166943247563
0.0164571126694
0.016021381411
0.015405482927
0.0146583309034
0.0138407434198
0.0130178819956
0.0122504120296
0.0115857069083
0.0110448980572
0.0106866593632
0.0102194176014
0.00989117901887
0.00941837051242
0.0090303340765
0.00854554092229
0.00812589617941
0.00764819948879
0.00723239541574
0.00679722214443
0.00644155172941
0.00611984838375
0.00586217129364
0.00568043512997
0.00557185361571
0.00554782391998
0.00561253584351
0.00575334628688
0.00595012206387
0.00622778093812
0.00655423452538
0.00692699293761
0.00730586938689
0.00772670097918
0.00811597493586
0.00855476784482
0.00891580178929
0.00934512357773
0.00965041743344
0.0100701525289
0.0103860502052
0.0108370937384
0.0113783337144
0.0120014503067
0.0126713589748
0.0133322017641
0.0139313380176
0.0144239220487
0.014793701006
0.0150423508732
0.0152042357185
0.0153116151475
0.0154017506454
0.0154820537823
0.0155739775164
0.0156566842524
0.0157618702536
0.0158608013427
0.0160203685475
0.0161735327123
0.0164178404704
0.0165860953042
0.0168488312945
0.0168848963836
0.0170756653496
0.0168432091489
0.0169141052698
0.016308422871
0.0162676007094
0.0152573829587
0.0151123057532
0.014974958142
0.0148282320932
0.014648386306
0.0144224214438
0.0141393344224
0.013769050432
0.0133202238099
0.0127338767999
0.0120761579317
0.0112901512389
0.0105177734921
0.0096936262962
0.00897059566064
0.00823870254807
0.00760070772052
0.00694134077758
0.0062818265671
0.00560596178463
0.00489003753724
0.00428787116925
0.00365449666355
0.00328650489395
0.00273290653095
0.00242870025579
0.00192511554084
0.00159062797032
0.00109071958576
0.000772445444702
0.000626358584118
0.0022720847863
0.00239672944504
0.0032241017213
0.00461092078841
0.00548366779715
0.00550865917848
0.00623885121516
0.00834454213309
0.00992738889121
0.0105943674232
0.0114092413845
0.012330637734
0.0130769553605
0.0138010228815
0.0144641350339
0.0150316228904
0.0155316504651
0.0159379168193
0.0162350883949
0.016397916208
0.0163905888576
0.0161940658404
0.0157947705807
0.0152146428981
0.014500060964
0.0137138272552
0.0129237564504
0.0121908517617
0.0115608924653
0.0110527474
0.0107211492721
0.0102925986104
0.00998985270166
0.00955376230712
0.00919349206433
0.00874221281826
0.00835127731342
0.00790535319629
0.00751655214622
0.00710575665831
0.00676591576722
0.00646347319956
0.00621803436278
0.00604566682877
0.00594189277762
0.00591863894111
0.0059797739147
0.00611032791504
0.00629577644589
0.00656085623753
0.00687026858775
0.00721709794641
0.00757375974613
0.00796567388055
0.00833400388464
0.00874101177208
0.00907900875991
0.00947499110386
0.00975836295269
0.0101416326987
0.0104365164659
0.0108613802195
0.0113733051679
0.0119685153505
0.0126146302104
0.0132582189751
0.0138435135765
0.0143276460041
0.0146924989827
0.0149433761166
0.0151130980385
0.0152337986083
0.0153338421427
0.0154295552844
0.0155323539898
0.0156341770261
0.015758060951
0.0158832709906
0.0160580897212
0.0162024054404
0.0163966890717
0.0164748856752
0.016603173741
0.0164942846783
0.016478476081
0.0160716623739
0.0158893738584
0.0151345330693
0.014868816894
0.0137812833821
0.0135598543927
0.0133787558478
0.013220512962
0.0130150448308
0.0127712397083
0.0124423893187
0.0121238369881
0.0117839177725
0.0115161498817
0.0112252168764
0.0109010906252
0.0104699514692
0.00988656176751
0.00924551381699
0.00844082222916
0.00773435906636
0.00687184650383
0.00625623260221
0.00547214142691
0.00503624906395
0.00436967001597
0.00403909857839
0.00346575700142
0.00313408896295
0.00260296489588
0.00221644537718
0.00210045782224
0.00173668983055
0.00190579510291
0.0022148333776
0.00478343413137
0.00421581016284
0.00432003886323
0.00519665455172
0.00642662692829
0.00662900298196
0.00594407731735
0.00666669084429
0.00864682709012
0.00995327714352
0.010654996153
0.0115330280654
0.0124032905955
0.0131452396563
0.0138643146511
0.0144982671561
0.0150418837725
0.0155009451263
0.0158434188626
0.0160498081388
0.0160859196248
0.0159279456049
0.0155668608814
0.0150234150006
0.0143417426494
0.0135880450922
0.0128311659169
0.0121327510258
0.0115368909815
0.0110599401469
0.0107531289195
0.0103610049506
0.0100816476573
0.00967909046826
0.00934537723869
0.00892491560524
0.00856054270092
0.00814399990647
0.00778151656034
0.00739544804109
0.00707070983343
0.00678617152417
0.00655286668516
0.00638960115072
0.00629061687934
0.00626816135812
0.00632563605946
0.00644646756335
0.00662191890212
0.00687514600174
0.00716659267954
0.00748873435823
0.00782502864167
0.0081910950183
0.0085395613454
0.00891587068457
0.00923270469886
0.00959687144303
0.00985947096944
0.0102100460416
0.0104857477956
0.010886440261
0.0113701000387
0.0119385534261
0.012561290837
0.0131873712299
0.013759144963
0.0142358798263
0.0145966379849
0.0148495191205
0.0150269919406
0.0151566661806
0.0152651919836
0.0153736505934
0.0154839854621
0.0156037792398
0.0157287804991
0.0158583114877
0.0159960873132
0.016104266637
0.0162061484184
0.0161907947204
0.0161623396889
0.0159089792965
0.0156913505593
0.0151321900005
0.0147571494283
0.0139169520271
0.0135190216408
0.0124535422569
0.012195832397
0.0119811387392
0.0117899639102
0.0116425814317
0.0115173585113
0.0113508023857
0.0110987382793
0.0106807168
0.0101931725367
0.00956602080308
0.00905787455646
0.00850274342112
0.00819829568865
0.00784070981369
0.0077018267449
0.00746869141423
0.00733221902282
0.00711970395981
0.00685464480565
0.00662455114164
0.00619009134831
0.00604038717314
0.00551489690215
0.00567797923291
0.0050493685817
0.005383109664
0.00469373367751
0.00535150697439
0.00502157490604
0.00629882711763
0.0106994983338
0.00981302008719
0.00816512122224
0.00678635535342
0.00725994918643
0.00845887722643
0.0081672749828
0.00707200111492
0.00764868455588
0.00911239192489
0.010074619962
0.0108274638647
0.0117137009883
0.0125294986315
0.0132681262898
0.0139613696262
0.0145565483109
0.0150597610888
0.0154511294929
0.0156996281366
0.0157798247449
0.0156612319131
0.0153389004786
0.0148318667033
0.0141841884087
0.0134637164189
0.0127403653903
0.0120760215971
0.0115132421455
0.0110661307534
0.0107824190575
0.010424426689
0.0101673282736
0.00979508303662
0.00948653516902
0.00909481209741
0.00875515921823
0.00836550114224
0.00802804196332
0.00766688171608
0.00735695435761
0.0070890854043
0.00686762012325
0.00671325983953
0.0066189697607
0.00659729180162
0.00665118094949
0.00676289458642
0.00692951887514
0.00717115826264
0.00744396768932
0.00774317451961
0.00806124554313
0.00840376853091
0.0087325826166
0.00907963445584
0.00937686400341
0.00971023828865
0.00995470461641
0.0102764973702
0.0105347200476
0.0109124542257
0.0113694856408
0.0119115187501
0.0125109432047
0.0131198343296
0.0136784237118
0.0141480166539
0.0145048260073
0.0147608561027