/*--------------------------------*- C++ -*----------------------------------*\
| =========                 |                                                 |
| \\      /  F ield         | OpenFOAM: The Open Source CFD Toolbox           |
|  \\    /   O peration     | Version:  3.0.1                                 |
|   \\  /    A nd           | Web:      www.OpenFOAM.org                      |
|    \\/     M anipulation  |                                                 |
\*---------------------------------------------------------------------------*/
FoamFile
{
    version     2.0;
    format      ascii;
    class       volScalarField;
    location    "101.263725316707081";
    object      p;
}
// * * * * * * * * * * * * * * * * * * * * * * * * * * * * * * * * * * * * * //

dimensions      [0 2 -2 0 0 0 0];

internalField   nonuniform List<scalar> 
8400
(
0.00219946259015
0.00021993454687
-0.00128102999878
-0.00172861191069
-0.00104489339907
0.000142205366922
0.00130528405921
0.00227518575741
0.0032138701391
0.00410441906412
0.00482671407412
0.00531253682029
0.00557548134027
0.00561215108378
0.00549244545496
0.00531504708441
0.00510904883581
0.00483435892948
0.00457050033198
0.00433414080355
0.00415410504071
0.00403493730307
0.00397099067137
0.0039564150458
0.00397481214376
0.00399764545796
0.00398812961646
0.00392148171705
0.00381303012627
0.00369201060014
0.00354531976371
0.00309118865067
0.0028816883956
0.00248695435324
0.00226565142724
0.00192762383146
0.00171168779261
0.0014273040092
0.00122430664216
0.000986454789305
0.000796097741305
0.000595721217073
0.000422041804693
0.00024702997812
8.42298921775e-05
-7.38230534967e-05
-0.000223559273726
-0.000378563322748
-0.000521412435997
-0.000682514487386
-0.000821967063564
-0.00100053175591
-0.00113890870976
-0.00134822600267
-0.00149194012415
-0.00174098524849
-0.00188973348888
-0.00218553656226
-0.00233260068752
-0.00267917001093
-0.00279925860526
-0.00291849626501
-0.00303467483308
-0.00312286874106
-0.00316809833054
-0.00318856844204
-0.00321152684299
-0.00325793849159
-0.00333462316884
-0.00343943851587
-0.0035222033643
-0.00364744859476
-0.0037898072766
-0.00387144635193
-0.00383764952445
-0.00364242802578
-0.00325532416914
-0.00270618358861
-0.00203854297165
-0.00127779110503
-0.000500248505205
0.000237478249367
0.000912485239109
0.00154451114705
0.00214997814207
0.00264154432261
0.00305224094467
0.00349648676554
0.00401375775556
0.00453060243949
0.00481407616452
0.00449927862028
0.00386689708605
0.00339887170195
0.00399893384015
0.00640330358594
0.00860369635239
0.00570003819698
-0.00244202105853
-0.00935631870564
-0.0120294650158
-0.01189888033
-0.0103352208144
-0.00842588258228
-0.00671157869981
-0.00463688334212
-0.00203477702649
0.000646215905489
0.0032453761222
0.00543524516825
0.00699728377742
0.00789492354866
0.00819324134284
0.00812598108904
0.00781849596326
0.00740005747047
0.00689285625857
0.00625120843709
0.00534412082076
0.00388922683225
0.0053738888904
0.00296666931275
0.000988783454012
0.000389632510287
0.00223542711039
0.00611633324804
0.0102123186276
0.0128753323517
0.0141666480096
0.0149113961213
0.0155740204695
0.0159791965792
0.0160027110567
0.0155840431917
0.0148137699774
0.0138761595969
0.0129797894911
0.0121086128786
0.0112759309675
0.0104769388261
0.00978257517593
0.00920653779705
0.00872181008856
0.0082922319068
0.00787954226308
0.00745955231823
0.00703314954037
0.00662214649893
0.00624803598175
0.00590598391974
0.0056170033074
0.00498604691982
0.00470476702776
0.00410333947691
0.00381163842797
0.00326511864712
0.00296135482882
0.00248257965852
0.00217003697479
0.00175652762674
0.00144115517624
0.00108775837635
0.000793677349146
0.000479016806239
0.00018709925031
-9.4447479094e-05
-0.000354893904544
-0.000631509416362
-0.000873249635796
-0.00115694801273
-0.00138003803987
-0.00168758354065
-0.0018895762948
-0.00223515676051
-0.00242057129817
-0.00281041639825
-0.00298738594597
-0.00341490967789
-0.00359766289402
-0.00404248533444
-0.00425913008661
-0.0045437271672
-0.00487788102598
-0.00527179260058
-0.005710217506
-0.00617085629694
-0.00663907476829
-0.00712123704751
-0.00763017482289
-0.00818470593317
-0.00876360453976
-0.00943280410982
-0.0100946918007
-0.010650836909
-0.0109780971811
-0.0109559859198
-0.0104866497233
-0.0095260583722
-0.00814673433654
-0.00642924922821
-0.00457854837043
-0.00289949972805
-0.0016463448858
-0.000933515082509
-0.000764808026515
-0.000651067944359
0.000144516068783
0.00202114888006
0.00504478281074
0.0083093774655
0.00941268234058
0.00625895824699
0.00046614586971
-0.00398400434805
-0.00690997440614
-0.0102086868666
-0.0144533314935
-0.0191880889266
-0.0232126175841
-0.0250696107008
-0.0247891659003
-0.0226985138385
-0.018845220836
-0.0131503951336
-0.00582073287867
0.00264635098837
0.0113034308028
0.019306145799
0.0258644381466
0.030134138008
0.0318611353537
0.0311573454128
0.0286130685768
0.0252209868289
0.0215687568148
0.0181411309418
0.0151400910098
0.0124977785854
0.0100956412929
0.00761764228933
0.00706784888317
0.00513147562259
0.00471291397106
0.0064746920958
0.0110909978444
0.0174583697379
0.0238384711515
0.0276424640501
0.0285288137979
0.0276074592122
0.026506887967
0.0254679614404
0.0243455628715
0.0229862099173
0.0214457512032
0.0197712166593
0.0181356046511
0.0166149727214
0.015285834491
0.0140325685728
0.0128552796823
0.0118055815696
0.0108650709066
0.0100130540362
0.00923240847314
0.00851224933996
0.00785490299516
0.00726603833687
0.00674393764519
0.00628462832271
0.00591748215772
0.00540499670079
0.00506172097793
0.00455031792076
0.00419984131753
0.00369840596389
0.00334362609956
0.00286413223966
0.00250749983057
0.00205891834246
0.00170107398018
0.00129742697494
0.000971116701535
0.000601997216532
0.000262726387933
-6.6499793802e-05
-0.000361827669931
-0.000684226632303
-0.000958168117866
-0.00127815026444
-0.00153397312969
-0.0018586402339
-0.00209782262612
-0.0024288323811
-0.00265665408069
-0.00299304242456
-0.00321648770599
-0.00355447390705
-0.00378226732553
-0.00411641834511
-0.00438071707642
-0.00473314188401
-0.00515860021421
-0.00566884690705
-0.00627626903047
-0.00698646525825
-0.0077957279749
-0.00870606813217
-0.00970943482669
-0.0108156422697
-0.0120081823313
-0.0133211246728
-0.0146978391446
-0.0160534060251
-0.0172473263458
-0.0181205345076
-0.0184826407395
-0.0181694476732
-0.0170875429062
-0.0152434181856
-0.0129608314148
-0.0107137525316
-0.00894843755598
-0.00787489646124
-0.00708914292704
-0.0059047687744
-0.00494086332514
-0.00552046728081
-0.00616767394111
-0.00246302019059
0.00604259089294
0.0148195952101
0.01479491133
0.00559760061053
-0.00701836918545
-0.0190329821044
-0.0291039849141
-0.0371686107979
-0.0429493754936
-0.0459920376916
-0.0459879929055
-0.0425549050676
-0.0356374394707
-0.0254399908371
-0.012271956804
0.00270857427729
0.0175554977648
0.030876166419
0.041186102333
0.0473067784422
0.048776707356
0.0460474581091
0.0405156912797
0.0338500203228
0.027404377132
0.0219329630895
0.0175734999383
0.0140385044755
0.0109776748156
0.00851810600095
0.0197959996466
0.0178327186398
0.0187433267512
0.0208123530922
0.0259911761511
0.0313044465166
0.0365235059743
0.0386497334469
0.0381113754807
0.0353459489731
0.0324359691145
0.029821818853
0.0276096170306
0.0255062411481
0.0235414931926
0.0216034078302
0.0197381354162
0.017982812363
0.0164679394299
0.0150717420617
0.0136966223271
0.012452593773
0.0113274913032
0.0103209694854
0.00941950180028
0.00861012293699
0.00788318287799
0.00723198406635
0.00665608897089
0.00615745582803
0.00576804999113
0.00534584400398
0.00499703529511
0.00456466191454
0.00421058521135
0.00376800011776
0.00341074092527
0.00296651507808
0.00260738524513
0.00216815714439
0.00180163892445
0.00138498191739
0.00105968473694
0.000675468951902
0.000324531601706
-2.06822765359e-05
-0.000320457421718
-0.000655765119541
-0.000936260470465
-0.00126034462695
-0.00152481500927
-0.00183804622783
-0.00208553866352
-0.00238620059064
-0.00262223566775
-0.00290995723184
-0.00314030742296
-0.00341509226791
-0.0036473818023
-0.00391356608745
-0.00418733034429
-0.00455395392987
-0.00499567349849
-0.00552012879317
-0.00614237255276
-0.00688353496732
-0.00776192105768
-0.00880198536067
-0.0100090004581
-0.011396056382
-0.0129588598186
-0.0147133243469
-0.0166420199866
-0.0187254928612
-0.0208771268079
-0.022977616834
-0.0248363334037
-0.0262177976894
-0.0269144333842
-0.0268421261863
-0.0262434193096
-0.0255579740251
-0.0251087006612
-0.0242979897039
-0.021160765172
-0.0135883991156
-0.00213288921379
0.00868669316816
0.0127429656093
0.00730601331641
-0.0068504417749
-0.0221996776909
-0.0271872754231
-0.0273377428068
-0.0274772952069
-0.0302332970483
-0.0357617445469
-0.0430473594979
-0.0503111139681
-0.0555914646787
-0.0577365942703
-0.0562646061509
-0.0507698560317
-0.0407320099112
-0.0263275179479
-0.00876766687546
0.00993869272154
0.0275273666601
0.0424672617243
0.0531036305289
0.0581444094994
0.0575028301943
0.0523002041867
0.0445228246599
0.0365217760713
0.0298783513054
0.0252358950331
0.0222929999109
0.0205234107034
0.0197044683624
0.0335484776373
0.0326800211318
0.0330495841727
0.0326671777657
0.0350526382943
0.0363375860364
0.0380813884955
0.0377692300507
0.0362644616823
0.0332221456309
0.0302293361559
0.027466561088
0.0252562585754
0.0233018826776
0.0216125021733
0.0200314502037
0.0185329503298
0.0170797768802
0.0157147069066
0.0145026654271
0.013302681039
0.0121453757284
0.0110834730419
0.0101152637365
0.0092403083878
0.00844521993716
0.00771897783667
0.00706373146013
0.00648157694989
0.00598538076747
0.00560913638958
0.005209414267
0.00488786676696
0.00447865825783
0.00414988370513
0.00373085478139
0.00339354543207
0.00297332118103
0.00262958129546
0.00220798161952
0.00184579135021
0.00142464907569
0.00110769046267
0.000727296752316
0.000377810018366
3.30466387948e-05
-0.000261814163513
-0.000597566072268
-0.000875956367152
-0.0011965368663
-0.00146020599011
-0.00176423721417
-0.00200649861169
-0.00229537263111
-0.00251948367024
-0.00279486878576
-0.0030076994138
-0.00327024905111
-0.00348255216289
-0.00373822065288
-0.00400153660972
-0.00436259013245
-0.00479711450061
-0.00530346087544
-0.00588694663557
-0.00656753037126
-0.00736911998936
-0.00832437797364
-0.00945106616287
-0.0107734143061
-0.0122998514516
-0.0140610464356
-0.0160708729683
-0.0183826706868
-0.0209871510707
-0.0238836878857
-0.0269629977609
-0.030078865087
-0.0330533330801
-0.0358149893198
-0.0384825651333
-0.0413197473612
-0.044530289447
-0.0473993599263
-0.0481480302227
-0.0437730848285
-0.0327157787016
-0.0154308935488
0.00295327722705
0.0214419524296
0.0394612982809
0.0392508503288
0.0207618076535
-0.00461054994733
-0.0274473565358
-0.044441052785
-0.0560854797414
-0.064280457839
-0.0707054837495
-0.0757380021003
-0.0785278962321
-0.0780354812618
-0.0737103966827
-0.0652047302742
-0.0521695569431
-0.0346712954006
-0.0137134019111
0.00875508520981
0.0306240690701
0.0496111788701
0.0629907694913
0.0693760674478
0.0692037776046
0.0637336026477
0.0551119952125
0.0462275578787
0.0398729005602
0.0367148952969
0.0351816591184
0.034164483848
0.0313612743561
0.0312946110256
0.0305834289359
0.0288400202476
0.0282179469171
0.0279036828406
0.0270611960495
0.0265181810655
0.0250660366989
0.0234595802327
0.0218729679313
0.0205428511314
0.0194603024404
0.0184806867807
0.0176263328934
0.0168243604131
0.0160296878517
0.0151591401075
0.0142563322743
0.0133927567737
0.0124954019567
0.0115733267511
0.0106733541861
0.00981407943171
0.00900591728662
0.00824898205057
0.00754196885995
0.00689353684053
0.00631617000052
0.00582659324321
0.00546541432313
0.00508617932194
0.00478294795382
0.00439682166565
0.0040801226953
0.00368461744613
0.00335668265657
0.00296071089251
0.00262907713466
0.00223195413562
0.00187872955344
0.00145538996493
0.00114170196886
0.000773147032089
0.000427062570784
8.96471621298e-05
-0.000201681823771
-0.000533486313712
-0.000809782597582
-0.00112476951595
-0.00138867802406
-0.00168198637739
-0.00192240302206
-0.00219679144137
-0.00241571336762
-0.00267608272914
-0.00287987898783
-0.0031287139946
-0.00332857754592
-0.00357351169794
-0.00382918724591
-0.00418839346085
-0.00462026842751
-0.00511603314332
-0.00566709710329
-0.00628275554465
-0.00698152824519
-0.0077814295703
-0.00870461974463
-0.00976815422668
-0.0109854023318
-0.0123911104354
-0.0140314147127
-0.0159936677532
-0.0183408754503
-0.0211836984919
-0.0244977369631
-0.0283151116007
-0.0324933585641
-0.0371290045527
-0.0421110799702
-0.0477534552188
-0.0538136793084
-0.0603690306952
-0.0660816821569
-0.0699977665841
-0.0693600608179
-0.0649071759269
-0.0548242501237
-0.0487137052221
-0.0265912940525
0.00200392947489
0.0276535915977
0.0401066538989
0.0389343403563
0.027385311159
0.010363033042
-0.00821982090957
-0.0260344290253
-0.0419219821004
-0.0553106521285
-0.0657910028025
-0.0726327660617
-0.0744696645336
-0.0696764996126
-0.0584471016138
-0.0423907631456
-0.0227741977911
-2.39697875178e-05
0.0240137963849
0.0463859984894
0.0647144540466
0.0767285952986
0.0804739913313
0.0758318824853
0.065349685725
0.053723885165
0.0451473890916
0.0396883593231
0.0351372132161
0.0228746586254
0.0198302071178
0.0195776102181
0.0186807970358
0.015356249111
0.0152506396432
0.0133929285151
0.013362114801
0.0126907823356
0.0126841966456
0.012626783384
0.0128302521284
0.013099647753
0.0133439493431
0.0135020897683
0.0135427500968
0.0134637643063
0.0132366598752
0.0128277822181
0.012294175843
0.011705012745
0.011032866808
0.0102914027784
0.0095386168115
0.00878840433075
0.0080607668601
0.00736612881411
0.00672030352346
0.00614597084073
0.00566187082411
0.00531333956959
0.00496462937405
0.00467577534303
0.00431838957709
0.0040106482559
0.00363672860211
0.00331523544363
0.00293827640649
0.00261706459507
0.00224479874502
0.00190883827984
0.00148659394307
0.00117091441076
0.000816013768348
0.000473613593611
0.000145628004956
-0.000144026197553
-0.000471450175302
-0.000744919075726
-0.00105546353405
-0.00131777186299
-0.00160024044046
-0.001836195088
-0.00209544104904
-0.00230893516074
-0.00255309757821
-0.00275053456717
-0.00298291261762
-0.00317322676274
-0.00340270408297
-0.0036523089581
-0.0040142315139
-0.00445085691071
-0.00494349203951
-0.00548115709779
-0.00605524359507
-0.00667542236511
-0.00734156269255
-0.00806028860499
-0.00882996213419
-0.00966501189509
-0.0105821277854
-0.011640258001
-0.012916740193
-0.0145439209204
-0.0166536551773
-0.0193007154606
-0.022583376859
-0.0264113681803
-0.0309631821356
-0.0359363725204
-0.0417753982607
-0.0476709770199
-0.0545799645373
-0.060428657502
-0.0672471432039
-0.0703306744114
-0.0752055272425
-0.072499804093
-0.0762922695603
-0.0743873480284
-0.0702961872504
-0.0562297405719
-0.0374190879149
-0.0186784793624
-0.00409899863478
0.00445230095025
0.0067499204015
0.00364943535807
-0.00343404778826
-0.0127732859297
-0.0226336145813
-0.0315766702184
-0.0388294795004
-0.0448859049734
-0.0503970108576
-0.0523357682669
-0.0461535285908
-0.0305504563324
-0.0104158713496
0.00887804850855
0.0279266583856
0.0496080987143
0.0698356041413
0.0801865826227
0.0779068828675
0.0671409676604
0.0531994843321
0.0402683627203
0.0301207370468
0.0259012707841
0.0152809718943
0.0103860084788
0.0131173576399
0.00911340691369
0.00738402678522
0.00571182900893
0.00492178233448
0.0047533350063
0.0051064237791
0.00602351158025
0.00708500254491
0.00824393560678
0.00931043104158
0.0102101640888
0.0108975724978
0.0113789334316
0.0116257061804
0.0116376803503
0.0114270670979
0.0110649776134
0.0105735291635
0.00995976204973
0.00928311726048
0.00857515988901
0.00786967114807
0.00718046374729
0.00653678386333
0.00596694863961
0.00548863823644
0.00515221782896
0.00483712953771
0.00456499975097
0.00423698527189
0.00394255156451
0.00358873112327
0.00327356829961
0.00291088653382
0.00259630683435
0.00224454788568
0.00193267024382
0.00151733395697
0.00119740648422
0.000855705395247
0.000518248013217
0.000199684244087
-8.97707007384e-05
-0.0004119001713
-0.000681799133745
-0.000988703279546
-0.00124625090984
-0.00151684705977
-0.00174518465607
-0.00199053265171
-0.0021976325307
-0.00242835870745
-0.00261980154163
-0.00283651890085
-0.00301713774941
-0.00322990146746
-0.00347218246701
-0.00383242341919
-0.00427390789887
-0.00476703197099
-0.00530057633115
-0.00585346832609
-0.00642756032186
-0.0069972741698
-0.00756704535605
-0.00809475139012
-0.00860227356622
-0.00906905022733
-0.00956808522983
-0.0101427875443
-0.0109803601735
-0.0121201461372
-0.0137321725581
-0.0157517164959
-0.0183184142549
-0.0212153733152
-0.0245990236845
-0.0280690689126
-0.0318829318042
-0.0353751904216
-0.0390754095752
-0.0416631098847
-0.0444112011009
-0.0444867925863
-0.0458482278341
-0.0404475248433
-0.0441979114828
-0.0506061224282
-0.0553788074574
-0.0570827163765
-0.0549276828421
-0.0495339156727
-0.0423807653281
-0.0351524574379
-0.0292088811179
-0.025409723226
-0.0239770266242
-0.0245602888754
-0.0264895973306
-0.0290039470769
-0.0312812698759
-0.0324759802467
-0.0318928591254
-0.0299826809133
-0.0280510529505
-0.0273108512512
-0.024507464226
-0.0126481117458
0.00860938092835
0.0292506639688
0.0428550412153
0.0548920584118
0.0667296643009
0.0668923013079
0.0536153422279
0.0377753729671
0.0388466677276
0.0274914408688
0.010474359892
0.0086494557738
0.00979444178263
0.00679461157969
0.00417385897162
0.00263878017553
0.00207448070909
0.00192844936118
0.00265367259307
0.00387146187599
0.00521519729938
0.0066299487674
0.0079101878333
0.0089681694611
0.00980872833308
0.010382816573
0.0106903186652
0.0107195189039
0.0105297314279
0.0101643112877
0.00964894469228
0.0090318002918
0.00835632284892
0.00766446247945
0.00698514344549
0.00634466845254
0.00577889806618
0.005308438873
0.00498365809335
0.00470096762299
0.00444716773575
0.0041493337139
0.00387184453228
0.00354124735937
0.00323344154448
0.0028833875394
0.0025725193101
0.00223268615381
0.0019478865264
0.00154569705936
0.00122228966089
0.000892006466487
0.000560646842038
0.000250968340793
-3.83025988173e-05
-0.000354504934625
-0.000619971769967
-0.000923651950358
-0.00117250744943
-0.00143034629347
-0.00165007358106
-0.00188371030778
-0.00208611107305
-0.00230587558609
-0.00249115006746
-0.00269055246349
-0.00286058412129
-0.00305409939896
-0.00328788021648
-0.00364658549446
-0.00408987852182
-0.00458533757234
-0.00511356880491
-0.00565316741211
-0.00619598008969
-0.00670675797563
-0.00716801873108
-0.00753046615067
-0.00780150845391
-0.00793804771597
-0.00801735935592
-0.00806864763129
-0.00828313155029
-0.0085997846157
-0.0092538821028
-0.00998690802945
-0.0111296844474
-0.0120415357518
-0.0134132377167
-0.0139443158412
-0.0152637392427
-0.0147172795833
-0.0158179803574
-0.0132070613123
-0.0139724649834
-0.00810048100952
-0.00903168626192
0.00111212224489
-0.00119135205795
-0.0053458054759
-0.0100729881181
-0.0147758874786
-0.0188052448303
-0.0216926888379
-0.0232629885358
-0.0236148334047
-0.0231473185216
-0.0222987375541
-0.0215745542462
-0.0212364233969
-0.0215477253809
-0.0224412797172
-0.023955778836
-0.0257913163673
-0.0274209004683
-0.0280279356266
-0.0270056140117
-0.0237540923036
-0.0181182779277
-0.0112314932037
-0.0056326285798
-0.00340730115759
-0.00122418351729
0.00808825804009
0.0245140564916
0.0389451904955
0.0465340761575
0.0475947022283
0.0283289385787
0.0343763762971
0.0255566103402
0.0103525007067
0.0076774472324
0.00982545428636
0.00687647835376
0.00366520053613
0.00259239436228
0.00195871927613
0.00177232480781
0.00254541566699
0.0036857302846
0.0049608739069
0.0063352050547
0.00755770536073
0.00858658690181
0.00937685268041
0.00987242477737
0.0100907564186
0.0100406819022
0.00977364084591
0.00933716409403
0.00876530179916
0.00812167032842
0.00744727152401
0.00677705564998
0.00614542534185
0.00558712255645
0.00512486713952
0.00481132804365
0.00455742359272
0.00432241991403
0.00405259513858
0.00379403072734
0.00348986651444
0.00319400221563
0.00285644735855
0.00254956121148
0.002213198485
0.00195352168038
0.00157028356018
0.00124549291085
0.000925290151046
0.000600805073278
0.000299117269783
1.04434687712e-05
-0.000298662314296
-0.000559390335259
-0.00085910941337
-0.00109527879384
-0.00134112257269
-0.0015529958587
-0.00177854995708
-0.00197720087655
-0.00218673602539
-0.00236109734759
-0.00254274297694
-0.00269994867181
-0.00287326325418
-0.00309829442592
-0.00345526893527
-0.00389595424605
-0.00439217352971
-0.00491478056459
-0.00544440760907
-0.00595872413025
-0.0064286793482
-0.00681033409841
-0.00706454603908
-0.00716656089999
-0.00709275190516
-0.00691301529882
-0.00667310465447
-0.00645802171648
-0.00623364821213
-0.00615297815389
-0.00599028114862
-0.00595111719467
-0.00548950248262
-0.00511666209104
-0.00387161767223
-0.00287033849468
-0.000491770167371
0.00123067146612
0.00484331587154
0.0070914620601
0.0117972735227
0.0136254509439
0.0194549591744
0.019474478625
0.0185523820776
0.0170854670757
0.0152517147528
0.0131987235429
0.0110170091456
0.00884782398159
0.00668666647691
0.00460155200825
0.00244398759804
0.000194110641673
-0.00232551805844
-0.00500011969443
-0.00774285735637
-0.0103370557707
-0.0125387950167
-0.0142320422219
-0.0152562792876
-0.016339530594
-0.0178949657197
-0.0203101633429
-0.0210778427089
-0.019128707871
-0.0145311313466
-0.00969103684488
-0.00617669815757
-0.00304940123096
0.00368159329762
0.013347215167
0.0229693419147
0.00150818377756
0.0120558177537
0.0212374901538
0.0179054987318
0.00781398812826
0.00736223659494
0.0101751832624
0.00708838390955
0.00384144531284
0.00314613020829
0.00248179929606
0.00226433765046
0.00304456287915
0.00402175349842
0.0052033082807
0.00646898285797
0.00756916012479
0.00849064669405
0.00913590152804
0.00948623247669
0.00955204170348
0.00937787608382
0.00901177910493
0.0084866706285
0.00787409992299
0.00721892718536
0.00656214976566
0.00594066815459
0.00539260972776
0.00494159953279
0.00463944034598
0.0044107866782
0.00419262684491
0.00394901483791
0.00370737593932
0.00343102508575
0.00315234303808
0.00282899942655
0.00252958024176
0.00219028748095
0.00195049655442
0.00158986522883
0.00126640456317
0.000955557767344
0.000638529806603
0.000344522248901
5.7133848009e-05
-0.000243662614599
-0.00049981839189
-0.00079384247292
-0.00101438233662
-0.00125089441259
-0.00145700337474
-0.00167713978995
-0.00187126726282
-0.00206720220653
-0.00222705010387
-0.00239173069009
-0.00253431893481
-0.00268983064586
-0.00290545385846
-0.00325699611398
-0.00369429217674
-0.00418965478017
-0.00470224833859
-0.00522081655676
-0.00570606102656
-0.00614006906272
-0.00645385227658
-0.00663026268385
-0.00661399830451
-0.00643140838373
-0.00608774136449
-0.00566196487039
-0.00515525942094
-0.00463601495927
-0.00406263373991
-0.00337943561001
-0.00250815849728
-0.00129308778237
0.000247654551293
0.00225242936476
0.00461123496294
0.00720234620278
0.0101367793835
0.0127386759994
0.0158533676721
0.017947351642
0.0205403455115
0.0219851552026
0.0228234125923
0.0232521182468
0.0233044886038
0.0231349139913
0.0226307286891
0.0218458250398
0.020601227662
0.0190494499752
0.0171342797487
0.0150457023865
0.0127533981362
0.0101699524128
0.00728049342078
0.00368253500361
-0.00034486354841
-0.00515978903314
-0.00971635740351
-0.0142690766336
-0.017222952504
-0.0188361530146
-0.0182406523455
-0.0168390770323
-0.0151138218131
-0.0130214710234
-0.0104549485631
-0.00682705160362
-0.00532547387454
-0.00477019491815
-0.00449022486702
-0.00682263025305
-0.0157890528922
-0.0074313192877
0.00183195596123
0.0093578159136
0.00677637715097
0.00179246085786
0.00606983179149
0.00985416533487
0.00651528196594
0.00387186879303
0.0035253403811
0.00280455752415
0.0027735449952
0.00353902737871
0.00442641900533
0.00556417789241
0.00669810668957
0.00766932327794
0.00842760967475
0.00888864427515
0.00905219302357
0.00897044784417
0.00867108312405
0.00819419651681
0.00761674650403
0.00698604964165
0.00634417872704
0.00573438631409
0.0051992592273
0.00476149972321
0.00447032605564
0.00426422209996
0.00406072087484
0.00384180254776
0.00361438374653
0.0033626475588
0.003105533936
0.00279889310024
0.00251221006018
0.00216705464475
0.00194091490644
0.00160401106134
0.00128505108426
0.000982974153259
0.000673768341255
0.000387005264076
0.000101902677474
-0.000189894416537
-0.000441145589358
-0.000727009880685
-0.000930955076785
-0.00116226633742
-0.00136393117678
-0.00157960532371
-0.00176502334487
-0.00194331374628
-0.0020886701758
-0.00223856005484
-0.0023658907217
-0.00250671436526
-0.00271372783934
-0.00305733634567
-0.00348961247256
-0.00397919666435
-0.00448134971392
-0.00498163140658
-0.00543947064563
-0.00583353482469
-0.00609033311687
-0.0061984188705
-0.00609562599675
-0.00581678476297
-0.00535555185983
-0.00481379002263
-0.00412464348474
-0.00341032767708
-0.0024813134422
-0.00145713684473
-1.11096177688e-05
0.00162531239574
0.00380467049765
0.00603324237809
0.00870635224933
0.0110233495924
0.0137873288847
0.015684405507
0.0181445200074
0.019075614928
0.0207868495506
0.0204738739168
0.0210326701595
0.0214226896276
0.0216939234775
0.021792491755
0.0217602562067
0.0215429044313
0.0209448193735
0.0199289300586
0.0180751191322
0.015825374686
0.0127787211747
0.00996781752655
0.00690093095487
0.00476369715172
0.00264811753639
0.00128250360759
-0.000425408460124
-0.0023735144191
-0.00467503430652
-0.00731127520023
-0.00902538580094
-0.0111374639349
-0.0114170178409
-0.0136149157731
-0.0141309490064
-0.0165424825435
-0.0178333798946
-0.0209641142276
-0.0232815395865
-0.0272956340765
-0.0252535119436
-0.0212041244892
-0.0115135547775
0.000962323901672
0.00474448576417
-0.00177142203948
-0.00404796397839
0.0041783113585
0.00830226748372
0.00534860757998
0.00373731101709
0.0035430958571
0.00294328707825
0.0031953361424
0.003949958588
0.00483777620416
0.00592451563472
0.00691914354112
0.00773493297421
0.00829702417476
0.00854970469312
0.00855224547989
0.00831067913344
0.00789099325145
0.00735271331685
0.0067477060976
0.00612501373033
0.00552996434073
0.00500870067934
0.00458552542172
0.00430511576343
0.00411985391671
0.00392792714813
0.00373265669585
0.00351842017772
0.00328621179687
0.00305185964924
0.00276342285565
0.00249575988264
0.0021452103666
0.00192632692261
0.0016132515738
0.00130077205503
0.00100795939782
0.000706684460906
0.000426981133318
0.000145264379921
-0.000136728653494
-0.000382899494716
-0.000658491202723
-0.000846742785885
-0.00107698327787
-0.00127420050068
-0.00148398516888
-0.00165495672202
-0.00181546973262
-0.00194909375989
-0.00208442691119
-0.00219706290398
-0.00232716103594
-0.00252575858924
-0.00285864844214
-0.00328263861687
-0.00376336223575
-0.0042563040227
-0.00473127586625
-0.00516219455338
-0.00550830324348
-0.00571416217137
-0.00575386282206
-0.00557147916706
-0.00519796849985
-0.00466446025858
-0.00399843193957
-0.00317353558052
-0.00224384436185
-0.0010433286409
0.000307467338875
0.00213378226089
0.00399922019691
0.00638833416604
0.00852629648707
0.0111217116898
0.0131262911555
0.0154515240955
0.0168060142421
0.0183963391777
0.0187183953798
0.0194419556635
0.0187232278332
0.0189531665406
0.0191876173591
0.0195224879791
0.0195592188215
0.0193679409215
0.0186211223682
0.0180815392124
0.0174932355654
0.0175105442174
0.0172853994785
0.0168211149842
0.015405866384
0.0128266335277
0.00957581808954
0.00511452474037
0.00129298072
-0.00353297940874
-0.00660620647329
-0.0109924309727
-0.0130023432064
-0.0169025639266
-0.0184014268474
-0.0217134560927
-0.023253680276
-0.0263178372088
-0.0287606407056
-0.0287109173578
-0.0318671701909
-0.0297565159201
-0.0304163518188
-0.0188262655517
-0.0190352441177
-0.0127915078803
-0.000264615889076
0.0111131447818
0.00884126318776
-0.00344068676148
-0.00485374966442
0.00357241714528
0.00628744652422
0.00418241195231
0.00353389705071
0.00334185219076
0.00306865799561
0.0035639236282
0.00432179841935
0.00523673532813
0.00623314760196
0.00707706332108
0.00770905566569
0.00804976046559
0.00811926457648
0.00794190466707
0.00758274541243
0.00708199262227
0.00650626577317
0.00590323169573
0.00532502247254
0.00482118995608
0.00441360939814
0.00414388125709
0.00397988901055
0.00379625863387
0.00362203850117
0.0034224628846
0.00320470313683
0.00299176150372
0.00272119126399
0.0024778484692
0.00212561983573
0.00190881183393
0.00161768824993
0.00131387567553
0.0010300868413
0.000737273158765
0.000464699820696
0.000187217111163
-8.43177583936e-05
-0.000325045421267
-0.000588755180936
-0.000763703503108
-0.000995620934571
-0.00118653374685
-0.00138703402702
-0.00154009763497
-0.00168624190752
-0.0018098439899
-0.00192991729781
-0.00203120249473
-0.00215330365991
-0.0023432998387
-0.00266135156273
-0.00307849391382
-0.00354444972299
-0.00402445893891
-0.00447486269789
-0.00487630832163
-0.00516972308288
-0.00532432511146
-0.00529498042801
-0.00502622147267
-0.00457349154361
-0.00395696205795
-0.00315268819352
-0.00218434750144
-0.00100089606258
0.000398405689604
0.00202555380184
0.00396773014518
0.00600248544992
0.00838481974368
0.0104441594741
0.0128205220752
0.0144052766478
0.0162422302338
0.0169393180746
0.0178919273944
0.017760027043
0.0179389789025
0.0173683310139
0.0175721591637
0.0177487595346
0.0179581316453
0.0185647928312
0.0194950768048
0.0200822614231
0.0199795842218
0.0185212586333
0.0164850780534
0.0131924248232
0.0106002656982
0.00737242314387
0.00594330910714
0.00384362835598
0.00326399929976
0.00149126661536
0.000287989366588
-0.00197616572933
-0.00454898264411
-0.00707212580266
-0.0107350580163
-0.0124238934273
-0.016487414004
-0.0156577595641
-0.020404515352
-0.0181787595401
-0.023227611344
-0.0186131132343
-0.019687698098
-0.0136473399605
0.0153458743429
0.0140094309292
0.00778999439725
0.00493876705684
0.014244739799
0.0236053893356
0.0157218841781
1.80892581386e-05
-0.00128681116071
0.00404747576567
0.00468877176326
0.00346830119597
0.00331778862792
0.003155388024
0.00326635861645
0.00390294993081
0.00468479599434
0.00559802863415
0.00646243657674
0.00712930638195
0.00754971855697
0.00768210370619
0.00756947988362
0.00726686392587
0.00680909740054
0.00626291854932
0.00568025570306
0.00511967203792
0.00463497160088