/*--------------------------------*- C++ -*----------------------------------*\
| =========                 |                                                 |
| \\      /  F ield         | OpenFOAM: The Open Source CFD Toolbox           |
|  \\    /   O peration     | Version:  3.0.1                                 |
|   \\  /    A nd           | Web:      www.OpenFOAM.org                      |
|    \\/     M anipulation  |                                                 |
\*---------------------------------------------------------------------------*/
FoamFile
{
    version     2.0;
    format      ascii;
    class       volScalarField;
    location    "101.888300098935147";
    object      p;
}
// * * * * * * * * * * * * * * * * * * * * * * * * * * * * * * * * * * * * * //

dimensions      [0 2 -2 0 0 0 0];

internalField   nonuniform List<scalar> 
8400
(
-0.436913
-0.452068
-0.466563
-0.476992
-0.482023
-0.482523
-0.480179
-0.476792
-0.473832
-0.472612
-0.474092
-0.478673
-0.486121
-0.495958
-0.507499
-0.519697
-0.530929
-0.539204
-0.542718
-0.539945
-0.529515
-0.510991
-0.484263
-0.449402
-0.406599
-0.356304
-0.299544
-0.238266
-0.175484
-0.114585
-0.0567711
0.000437926
0.0623509
0.12383
0.186771
0.247108
0.306068
0.360221
0.410202
0.453278
0.48954
0.51711
0.535693
0.54441
0.542865
0.530851
0.508389
0.475952
0.433418
0.382412
0.322334
0.256214
0.18268
0.105925
0.0238432
-0.0585125
-0.143787
-0.226372
-0.309367
-0.386166
-0.463285
-0.545635
-0.632325
-0.718879
-0.801194
-0.876537
-0.943227
-1.00039
-1.04755
-1.08431
-1.11028
-1.12524
-1.12921
-1.12271
-1.10756
-1.08519
-1.0574
-1.02631
-0.994015
-0.962091
-0.932541
-0.90595
-0.882573
-0.862365
-0.845029
-0.830133
-0.8173
-0.806333
-0.797303
-0.790501
-0.785938
-0.782832
-0.781154
-0.781405
-0.784138
-0.789734
-0.798254
-0.809814
-0.824886
-0.843858
-0.866364
-0.891136
-0.916217
-0.939024
-0.956485
-0.965747
-0.964686
-0.951345
-0.923499
-0.880424
-0.825468
-0.76294
-0.696975
-0.630892
-0.568435
-0.513675
-0.470477
-0.441666
-0.428049
-0.427817
-0.469388
-0.477509
-0.487596
-0.495871
-0.498271
-0.496063
-0.489607
-0.480973
-0.472662
-0.46673
-0.464284
-0.465663
-0.470775
-0.47916
-0.490374
-0.503729
-0.51768
-0.529758
-0.537244
-0.538049
-0.530892
-0.514713
-0.488941
-0.453453
-0.408486
-0.354688
-0.293475
-0.227563
-0.160918
-0.0968972
-0.0377385
0.0175917
0.0763336
0.134589
0.194436
0.252228
0.308903
0.361329
0.409797
0.451835
0.487279
0.514386
0.532692
0.541356
0.539927
0.528191
0.506208
0.474392
0.432817
0.382919
0.324513
0.260197
0.18926
0.115268
0.0369775
-0.0414112
-0.121718
-0.199396
-0.277364
-0.351352
-0.43046
-0.517572
-0.610079
-0.704128
-0.794268
-0.876315
-0.947943
-1.008
-1.05581
-1.09075
-1.11243
-1.12091
-1.11703
-1.10232
-1.07853
-1.04812
-1.01377
-0.978106
-0.943534
-0.911884
-0.884203
-0.86063
-0.840865
-0.824256
-0.810033
-0.797344
-0.785554
-0.774487
-0.76423
-0.754912
-0.747848
-0.743718
-0.742465
-0.744355
-0.74979
-0.758972
-0.771373
-0.786041
-0.802369
-0.820234
-0.839465
-0.859516
-0.879339
-0.897234
-0.910844
-0.917487
-0.914893
-0.902452
-0.881956
-0.854956
-0.820299
-0.777736
-0.728653
-0.676061
-0.623207
-0.573439
-0.530317
-0.497301
-0.476729
-0.46846
-0.513712
-0.518847
-0.528458
-0.537234
-0.539297
-0.532723
-0.520391
-0.504461
-0.48779
-0.473467
-0.463904
-0.460106
-0.461748
-0.467762
-0.477175
-0.489234
-0.502744
-0.515557
-0.524891
-0.528029
-0.522801
-0.507534
-0.481194
-0.4435
-0.394879
-0.336508
-0.270552
-0.200428
-0.13038
-0.0641232
-0.00699807
0.0448733
0.0988418
0.152827
0.207998
0.261988
0.314887
0.364448
0.410282
0.450455
0.48435
0.51051
0.528195
0.536671
0.535407
0.524184
0.503142
0.472559
0.432833
0.385038
0.329679
0.268578
0.202111
0.132607
0.0602513
-0.012428
-0.0856916
-0.157045
-0.227995
-0.296812
-0.373088
-0.463287
-0.560906
-0.661281
-0.75856
-0.84771
-0.925425
-0.989749
-1.03946
-1.07379
-1.09259
-1.09648
-1.08701
-1.06653
-1.03801
-1.00468
-0.969767
-0.936003
-0.905511
-0.879366
-0.857637
-0.83957
-0.824204
-0.810376
-0.797191
-0.784055
-0.771162
-0.75919
-0.749174
-0.740656
-0.74119
-0.743982
-0.747768
-0.752166
-0.75818
-0.766998
-0.77943
-0.795543
-0.814856
-0.836678
-0.860393
-0.885261
-0.909925
-0.932129
-0.949063
-0.958266
-0.958491
-0.94953
-0.931039
-0.903024
-0.866618
-0.823904
-0.777359
-0.729223
-0.681265
-0.635211
-0.593297
-0.558278
-0.532831
-0.518294
-0.520697
-0.522648
-0.534949
-0.551747
-0.564155
-0.566541
-0.557197
-0.539484
-0.517007
-0.493934
-0.474744
-0.462129
-0.457019
-0.458532
-0.464921
-0.474622
-0.486259
-0.498026
-0.507363
-0.511157
-0.506422
-0.490823
-0.462982
-0.422638
-0.370637
-0.308859
-0.240185
-0.168379
-0.0976729
-0.0319925
0.0219582
0.0701453
0.119571
0.169564
0.220374
0.270661
0.319844
0.366439
0.4095
0.447626
0.479778
0.504841
0.521786
0.530023
0.528937
0.518314
0.498374
0.469224
0.431591
0.386164
0.334074
0.276434
0.214435
0.14951
0.082712
0.0155202
-0.051457
-0.116993
-0.181541
-0.245011
-0.31706
-0.40652
-0.505124
-0.607692
-0.708333
-0.801746
-0.883814
-0.951603
-1.0031
-1.03723
-1.05396
-1.05438
-1.04076
-1.01711
-0.987228
-0.954256
-0.921422
-0.89147
-0.86589
-0.844824
-0.827544
-0.812945
-0.800308
-0.7886
-0.777902
-0.768079
-0.760451
-0.755023
-0.753403
-0.752786
-0.756045
-0.756354
-0.758316
-0.766123
-0.78071
-0.800553
-0.823093
-0.847299
-0.872567
-0.898425
-0.924444
-0.949971
-0.973799
-0.994083
-1.00866
-1.01577
-1.01466
-1.00535
-0.987432
-0.960214
-0.925868
-0.884846
-0.838819
-0.789504
-0.738508
-0.687701
-0.639317
-0.595619
-0.559193
-0.533268
-0.471599
-0.465874
-0.477218
-0.502446
-0.531418
-0.55393
-0.56418
-0.56046
-0.544696
-0.521275
-0.495951
-0.474548
-0.460412
-0.454305
-0.454961
-0.460396
-0.468807
-0.478352
-0.486429
-0.489659
-0.484542
-0.468233
-0.439078
-0.39687
-0.342825
-0.279364
-0.209809
-0.138063
-0.0683538
-0.00468468
0.045943
0.0904261
0.135876
0.182173
0.229204
0.276085
0.321974
0.365784
0.406302
0.442451
0.472947
0.496919
0.513143
0.521135
0.520216
0.510184
0.491304
0.46357
0.427914
0.384809
0.335734
0.2814
0.223404
0.162741
0.100788
0.0385889
-0.0230188
-0.0832434
-0.142254
-0.200481
-0.268134
-0.354946
-0.452267
-0.554607
-0.65595
-0.750897
-0.834829
-0.904054
-0.955856
-0.988909
-1.00314
-1.0003
-0.98432
-0.959595
-0.929584
-0.897932
-0.868055
-0.841804
-0.820041
-0.802205
-0.786612
-0.773464
-0.762264
-0.752189
-0.744414
-0.738601
-0.736862
-0.737849
-0.743942
-0.751784
-0.765903
-0.780664
-0.797959
-0.817997
-0.839213
-0.860557
-0.882521
-0.906217
-0.932022
-0.959302
-0.986905
-1.01346
-1.03746
-1.05734
-1.07148
-1.07856
-1.07755
-1.06823
-1.0503
-1.02301
-0.98495
-0.938377
-0.884959
-0.827088
-0.767098
-0.706822
-0.64778
-0.591071
-0.538716
-0.496125
-0.371409
-0.358162
-0.361328
-0.385627
-0.42653
-0.472114
-0.510454
-0.534282
-0.541839
-0.53351
-0.513864
-0.490213
-0.469319
-0.455066
-0.448224
-0.447671
-0.451651
-0.458018
-0.463962
-0.465898
-0.460011
-0.443078
-0.413182
-0.37008
-0.315194
-0.251275
-0.181909
-0.11113
-0.0432443
0.0178912
0.0653436
0.106278
0.148156
0.191051
0.234704
0.278471
0.321399
0.362627
0.400832
0.435109
0.464068
0.48698
0.502524
0.510268
0.509496
0.50002
0.482114
0.45573
0.421886
0.381001
0.334668
0.283426
0.229041
0.172282
0.114665
0.0569641
0.000136762
-0.0552727
-0.109306
-0.162579
-0.226036
-0.309535
-0.404442
-0.505342
-0.606002
-0.700808
-0.7848
-0.853748
-0.904471
-0.935541
-0.947271
-0.941931
-0.924712
-0.899444
-0.869938
-0.840016
-0.81247
-0.78854
-0.768222
-0.750497
-0.73607
-0.723092
-0.711857
-0.702175
-0.695188
-0.690426
-0.68924
-0.690101
-0.694838
-0.701473
-0.715054
-0.734406
-0.758678
-0.786757
-0.816999
-0.848052
-0.879296
-0.91054
-0.94153
-0.971712
-1.00027
-1.02623
-1.04848
-1.06594
-1.07749
-1.08183
-1.07792
-1.06513
-1.04309
-1.01147
-0.970198
-0.92006
-0.862786
-0.799907
-0.734195
-0.666864
-0.598988
-0.530936
-0.463493
-0.403996
-0.245951
-0.229023
-0.221708
-0.233509
-0.270281
-0.326917
-0.390442
-0.446618
-0.486997
-0.508045
-0.508788
-0.494822
-0.474896
-0.456378
-0.443302
-0.436694
-0.435678
-0.438255
-0.441529
-0.441786
-0.434978
-0.417583
-0.38741
-0.344094
-0.289126
-0.225455
-0.156878
-0.0876044
-0.0219912
0.0364017
0.0808085
0.118489
0.157113
0.196894
0.237474
0.278374
0.318598
0.35742
0.393494
0.425997
0.453517
0.475394
0.490289
0.497779
0.497132
0.488174
0.471165
0.446065
0.4139
0.375129
0.331315
0.282967
0.231879
0.178718
0.125029
0.0714133
0.018904
-0.032155
-0.0816745
-0.130456
-0.18989
-0.269783
-0.361657
-0.460374
-0.559552
-0.653273
-0.736273
-0.803907
-0.85279
-0.88137
-0.890446
-0.883892
-0.865712
-0.840235
-0.811576
-0.783298
-0.757498
-0.734904
-0.715123
-0.69769
-0.682156
-0.667961
-0.655276
-0.644242
-0.635199
-0.627771
-0.62208
-0.61715
-0.613743
-0.611394
-0.615214
-0.628825
-0.650926
-0.678614
-0.709182
-0.740873
-0.772838
-0.804763
-0.836354
-0.867042
-0.896
-0.922193
-0.944408
-0.961399
-0.971943
-0.974766
-0.968988
-0.954087
-0.929782
-0.896146
-0.85392
-0.804313
-0.74945
-0.691411
-0.628782
-0.562006
-0.491956
-0.419716
-0.349538
-0.279788
-0.133411
-0.116643
-0.100204
-0.0934009
-0.110952
-0.158285
-0.22894
-0.307605
-0.378419
-0.432378
-0.464677
-0.473773
-0.465865
-0.451007
-0.436389
-0.425958
-0.420712
-0.419594
-0.420066
-0.418491
-0.410705
-0.392942
-0.362746
-0.319588
-0.264956
-0.201938
-0.134533
-0.0671353
-0.00408165
0.0514529
0.0929278
0.127642
0.163312
0.200239
0.238009
0.276254
0.313984
0.350554
0.384647
0.415468
0.441627
0.462496
0.476759
0.483986
0.483443
0.474965
0.45879
0.43491
0.40432
0.367556
0.326079
0.280439
0.232391
0.182556
0.132446
0.0825622
0.0339573
-0.0131581
-0.0586132
-0.103336
-0.158916
-0.23503
-0.323455
-0.419454
-0.516597
-0.608666
-0.690081
-0.755882
-0.802616
-0.828866
-0.836018
-0.828035
-0.809128
-0.783812
-0.756179
-0.729311
-0.704691
-0.682662
-0.662684
-0.644389
-0.62725
-0.611227
-0.596229
-0.582458
-0.569654
-0.557537
-0.545625
-0.533523
-0.521609
-0.510822
-0.506269
-0.513418
-0.531151
-0.55514
-0.581674
-0.608793
-0.635855
-0.662892
-0.689929
-0.71665
-0.742307
-0.765822
-0.785903
-0.801264
-0.810562
-0.812541
-0.806356
-0.791665
-0.768631
-0.737575
-0.698854
-0.652484
-0.599223
-0.539922
-0.476002
-0.4101
-0.345446
-0.282546
-0.221805
-0.166606
-0.0743188
-0.0474452
-0.0204523
0.0039578
0.00971079
-0.014863
-0.0718256
-0.152899
-0.240496
-0.319457
-0.380537
-0.419462
-0.434096
-0.431946
-0.422607
-0.412678
-0.405526
-0.401758
-0.399803
-0.396479
-0.387726
-0.369636
-0.339529
-0.296715
-0.242657
-0.180554
-0.114602
-0.0493523
0.0109599
0.0635868
0.102248
0.134248
0.16723
0.201537
0.236725
0.272502
0.307914
0.342367
0.374597
0.403824
0.428688
0.448578
0.462219
0.469174
0.468716
0.46068
0.445286
0.422562
0.393465
0.358598
0.319308
0.276208
0.230982
0.184228
0.1374
0.0909364
0.0458774
0.00234358
-0.0394467
-0.0804908
-0.132393
-0.204648
-0.289348
-0.382228
-0.476916
-0.566949
-0.646418
-0.710162
-0.754662
-0.778771
-0.784202
-0.77502
-0.755697
-0.730786
-0.70414
-0.67828
-0.654249
-0.632119
-0.611342
-0.5916
-0.572447
-0.553988
-0.535983
-0.518581
-0.501297
-0.484007
-0.46627
-0.448248
-0.430605
-0.415173
-0.40696
-0.410919
-0.425983
-0.447264
-0.470807
-0.49474
-0.518593
-0.542561
-0.566776
-0.591003
-0.614641
-0.636748
-0.656006
-0.671141
-0.681098
-0.684953
-0.681737
-0.670477
-0.650079
-0.619974
-0.580652
-0.533553
-0.480999
-0.425019
-0.367561
-0.30987
-0.254166
-0.201487
-0.15337
-0.108857
-0.0549019
-0.0186303
0.0172715
0.0519666
0.0811379
0.0803742
0.047862
-0.0190835
-0.105461
-0.195132
-0.275831
-0.337639
-0.378424
-0.395967
-0.398476
-0.394111
-0.388392
-0.383871
-0.380409
-0.375711
-0.366111
-0.347741
-0.317785
-0.275423
-0.222095
-0.161106
-0.0968307
-0.0339278
0.023542
0.0732645
0.109235
0.138745
0.16927
0.201167
0.233975
0.267453
0.300695
0.33315
0.363617
0.391326
0.414953
0.433893
0.446921
0.453594
0.453203
0.445574
0.430917
0.409289
0.381613
0.34854
0.311308
0.270595
0.228001
0.184111
0.140307
0.0969861
0.0551602
0.0148881
-0.0235888
-0.0612922
-0.1097
-0.178088
-0.2589
-0.348372
-0.440278
-0.527985
-0.605281
-0.666849
-0.709119
-0.731102
-0.735119
-0.725023
-0.705504
-0.681033
-0.655107
-0.629762
-0.605748
-0.582954
-0.560911
-0.539294
-0.517758
-0.496404
-0.474968
-0.453656
-0.432043
-0.410357
-0.388447
-0.367032
-0.347059
-0.330728
-0.322581
-0.326513
-0.341269
-0.361949
-0.384759
-0.408125
-0.431908
-0.456484
-0.482118
-0.508673
-0.535433
-0.561097
-0.584143
-0.603205
-0.616738
-0.623042
-0.620831
-0.609699
-0.589722
-0.561605
-0.526646
-0.486514
-0.442249
-0.394864
-0.345327
-0.294894
-0.244749
-0.194821
-0.146525
-0.0976074
-0.0415126
-0.00196512
0.0385743
0.0778024
0.110811
0.130635
0.123546
0.0832592
0.0107653
-0.0782656
-0.167825
-0.24619
-0.30671
-0.344818
-0.363214
-0.368663
-0.367798
-0.364857
-0.361243
-0.355843
-0.345677
-0.32714
-0.297404
-0.255584
-0.203116
-0.143407
-0.0809911
-0.0205727
0.0340168
0.0808791
0.114285
0.141504
0.169778
0.19945
0.230057
0.26139
0.292595
0.323157
0.351945
0.378204
0.400643
0.418663
0.431087
0.437474
0.437125
0.429873
0.415915
0.395327
0.369008
0.337632
0.302345
0.263882
0.223752
0.18253
0.141521
0.101098
0.0622334
0.0249399
-0.010533
-0.0451965
-0.0902976
-0.154865
-0.231718
-0.317592
-0.40647
-0.491622
-0.566572
-0.625903
-0.666001
-0.686092
-0.68874
-0.677907
-0.658268
-0.634101
-0.608519
-0.5832
-0.558683
-0.534771
-0.511088
-0.487288
-0.463157
-0.438742
-0.41393
-0.389082
-0.364055
-0.339517
-0.315577
-0.293357
-0.273703
-0.258762
-0.252308
-0.257762
-0.273809
-0.296041
-0.321233
-0.347827
-0.375335
-0.403982
-0.433926
-0.464949
-0.496528
-0.52759
-0.556547
-0.58188
-0.602036
-0.615169
-0.619654
-0.615077
-0.601693
-0.580232
-0.55099
-0.514188
-0.470133
-0.420293
-0.366828
-0.311187
-0.255118
-0.198374
-0.143002
-0.0872225
-0.0466441
0.000748225
0.0483556
0.0895394
0.123489
0.149065
0.159109
0.141135
0.0911298
0.0163437
-0.0693978
-0.154071
-0.22692
-0.282904
-0.318048
-0.336054
-0.342886
-0.343811
-0.34161
-0.336413
-0.326135
-0.307635
-0.278233
-0.237052
-0.185566
-0.127284
-0.0668744
-0.00902911
0.0426892
0.0867654
0.117734
0.142842
0.169044
0.196656
0.225223
0.254552
0.283842
0.312606
0.33979
0.364657
0.385951
0.403081
0.414912
0.421006
0.420679
0.413777
0.400483
0.380886
0.355861
0.326095
0.292653
0.256313
0.218498
0.179766
0.14135
0.103608
0.0674651
0.0328977
0.000157436
-0.0317348
-0.0737186
-0.134554
-0.207448
-0.289608
-0.375285
-0.457703
-0.530177
-0.587206
-0.625198
-0.643506
-0.644909
-0.633421
-0.613618
-0.589517
-0.563886
-0.538145
-0.512681
-0.487307
-0.461717
-0.435613
-0.408916
-0.381664
-0.354031
-0.326533
-0.29943
-0.273719
-0.249604
-0.228343
-0.210412
-0.198012
-0.194299
-0.202484
-0.221004
-0.245532
-0.273181
-0.303059
-0.335337
-0.370696
-0.409667
-0.45153
-0.494266
-0.536183
-0.57656
-0.614345
-0.646858
-0.670653
-0.68348
-0.685043
-0.675668
-0.655097
-0.62243
-0.578385
-0.525214
-0.46616
-0.403082
-0.338263
-0.27334
-0.20999
-0.151292
-0.0922402
-0.128528
-0.0522428
0.0128394
0.0650458
0.107032
0.141349
0.162815
0.164652
0.137775
0.0830428
0.00918955
-0.0723875
-0.150174
-0.216636
-0.266064
-0.297113
-0.313505
-0.320215
-0.320953
-0.316978
-0.307176
-0.289015
-0.260109
-0.219685
-0.169299
-0.112575
-0.0542901
0.000932575
0.0498233
0.0912087
0.119866
0.143024
0.167315
0.193016
0.219684
0.247137
0.274625
0.301683
0.327331
0.35086
0.371046
0.387313
0.398561
0.40436
0.404039
0.397461
0.384799
0.366146
0.342359
0.314123
0.28243
0.2481
0.212462
0.17606
0.140056
0.104804
0.07117
0.0391044
0.00885845
-0.0205052
-0.0595601
-0.116782
-0.185768
-0.264162
-0.346523
-0.426062
-0.49598
-0.550626
-0.586526
-0.603189
-0.60345
-0.591296
-0.571194
-0.54688
-0.520839
-0.494289
-0.467534
-0.440457
-0.412842
-0.384536
-0.355568
-0.326082
-0.296528
-0.267499
-0.239675
-0.214071
-0.190918
-0.171422
-0.155397
-0.144842
-0.141923
-0.151747
-0.17347
-0.203507
-0.238824
-0.278074
-0.321914
-0.371069
-0.424208
-0.479151
-0.535836
-0.595054
-0.654778
-0.710241
-0.756843
-0.791833
-0.814233
-0.823596
-0.819045
-0.799563
-0.765217
-0.717499
-0.65935
-0.594053
-0.524298
-0.4528
-0.381415
-0.315118
-0.250728
-0.195938
-0.273333
-0.179044
-0.0891813
-0.0175252
0.0452742
0.0953859
0.132737
0.153511
0.150841
0.120292
0.0650507
-0.00616562
-0.0822305
-0.15309
-0.211656
-0.253928
-0.280211
-0.293978
-0.298957
-0.297204
-0.28853
-0.271077
-0.242878
-0.20335
-0.154185
-0.0991365
-0.0430656
0.00951571
0.0556469
0.0944508
0.120925
0.142277
0.1648
0.188724
0.21362
0.239314
0.265105
0.290545
0.314721
0.33696
0.356074
0.371501
0.382179
0.38768
0.387355
0.381078
0.369016
0.351263
0.328661
0.30188
0.271851
0.239425
0.20584
0.171619
0.137869
0.104932
0.0736175
0.0438549
0.0158914
-0.0111653
-0.0474756
-0.10122
-0.166385
-0.241015
-0.319986
-0.396552
-0.463833
-0.516059
-0.549776
-0.564978
-0.564108
-0.551241
-0.530684
-0.505892
-0.479132
-0.451462
-0.423178
-0.394279
-0.364705
-0.334483
-0.303766
-0.272896
-0.242444
-0.213043
-0.185564
-0.160736
-0.139028
-0.121318
-0.106709
-0.0977323
-0.0961956
-0.112598
-0.14431
-0.183775
-0.227222
-0.275358
-0.329151
-0.387754
-0.450363
-0.517419
-0.589216
-0.663746
-0.736821
-0.803989
-0.861295
-0.905871
-0.936336
-0.951917
-0.952032
-0.936222
-0.905117
-0.860324
-0.804818
-0.741765
-0.67439
-0.604443
-0.530771
-0.467417
-0.40901
-0.371865
-0.37187
-0.296683
-0.208428
-0.130642
-0.0487282
0.0144897
0.0725279
0.112307
0.13363
0.128498
0.0963167
0.0417648
-0.0258657
-0.0958697
-0.15894
-0.209189
-0.244285
-0.265439
-0.275556
-0.276897
-0.269989
-0.253654
-0.226402
-0.187928
-0.140104
-0.0868354
-0.033046
0.0168997
0.0603558
0.0966956
0.121111
0.14079
0.161673
0.183941
0.207182
0.231224
0.255415
0.279319
0.302088
0.323085
0.34116
0.35577
0.36589
0.371093
0.370752
0.364756
0.353266
0.336374
0.314905
0.289507
0.261062
0.230445
0.198796
0.166623
0.134981
0.104205
0.0750386
0.0474014
0.0215276
-0.00342522
-0.037167
-0.0875825
-0.149038
-0.219943
-0.295489
-0.369022
-0.43361
-0.483424
-0.515089
-0.528697
-0.526676
-0.513042
-0.491856
-0.466353
-0.438628
-0.409613
-0.379674
-0.348988
-0.317674
-0.285936
-0.254143
-0.222814
-0.192475
-0.163703
-0.137208
-0.113735
-0.0939545
-0.0779286
-0.0655918
-0.0598372
-0.0613123
-0.0851292
-0.120469
-0.162417
-0.211649
-0.267728
-0.327922
-0.389747
-0.453102
-0.519566
-0.590852
-0.66468
-0.735051
-0.798754
-0.852827
-0.895192
-0.924659
-0.940364
-0.941792
-0.928973
-0.902874
-0.865348
-0.818581
-0.764333
-0.704317
-0.641125
-0.57842
-0.522467
-0.476884
-0.435828
-0.339151
-0.315965
-0.268874
-0.209046
-0.13611
-0.0678164
-0.00106278
0.0537828
0.0949043
0.112848
0.104276
0.070031
0.0162889
-0.0474519
-0.110715
-0.165477
-0.207369
-0.235359
-0.250942
-0.256005
-0.251429
-0.236616
-0.210568
-0.173316
-0.126953
-0.0755539
-0.0240927
0.0232422
0.0641175
0.0981132
0.120595
0.138725
0.158081
0.178805
0.200498
0.222986
0.245666
0.268113
0.289538
0.309341
0.326409
0.340222
0.349796
0.354703
0.354341
0.348606
0.33766
0.321591
0.301207
0.277126
0.250192
0.221292
0.19147
0.161222
0.131559
0.102801
0.0756309
0.0499559
0.0259941
0.00296183
-0.0283761
-0.0756169
-0.133495
-0.200742
-0.272865
-0.34332
-0.405201
-0.452586
-0.482183
-0.494192
-0.491021
-0.476529
-0.454531
-0.428138
-0.399268
-0.368776
-0.337211
-0.30492
-0.272154
-0.239377
-0.207248
-0.176308
-0.146905
-0.119571
-0.0949948
-0.0736617
-0.0556641
-0.0416648
-0.0327263
-0.0303121
-0.0328229
-0.0577214
-0.0895883
-0.132625
-0.178133
-0.228595
-0.282262
-0.337649
-0.39449
-0.452913
-0.512195
-0.57058
-0.625372
-0.67414
-0.71469
-0.745635
-0.76588
-0.775024
-0.772891
-0.760126
-0.73774
-0.70739
-0.670581
-0.628436
-0.581193
-0.529516
-0.476132
-0.427259
-0.390276
-0.364127
-0.254971
-0.256283
-0.249106
-0.223275
-0.180241
-0.124734
-0.063589
-0.00449315
0.0468885
0.0819041
0.0938463
0.0800653
0.0432413
-0.00968169
-0.0689205
-0.124827
-0.1711
-0.204724
-0.225547
-0.234632
-0.232808
-0.219878
-0.195285
-0.159423
-0.114638
-0.0651872
-0.0160828
0.028681
0.0670753
0.0988454
0.119515
0.136215
0.154151
0.173427
0.193672
0.214698
0.23595
0.257016
0.277157
0.295815
0.311908
0.324947
0.333986
0.338601
0.33821
0.332722
0.322293
0.307011
0.287663
0.264837
0.239345
0.212078
0.18398
0.155545
0.127744
0.100875
0.07556
0.0516943
0.0294822
0.00820981
-0.0208774
-0.0651044
-0.119548
-0.183231
-0.251951
-0.319316
-0.378474
-0.423397
-0.450946
-0.461382
-0.457023
-0.441535
-0.41858
-0.391189
-0.361044
-0.329079
-0.296087
-0.262428
-0.228548
-0.195338
-0.163555
-0.133522
-0.105732
-0.0808681
-0.0591436
-0.0407501
-0.0256759
-0.0150333
-0.00855844
-0.00694681
-0.00540757
-0.0278607
-0.053002
-0.0841927
-0.12073
-0.162498
-0.208186
-0.256424
-0.305674
-0.354736
-0.402222
-0.446614
-0.486223
-0.519526
-0.545337
-0.562932
-0.572078
-0.572951
-0.565938
-0.551777
-0.531637
-0.506946
-0.47895
-0.448072
-0.414212
-0.376804
-0.33626
-0.295931
-0.264117
-0.250683
-0.176108
-0.190351
-0.199478
-0.195379
-0.179273
-0.146545
-0.102314
-0.0503439
0.00104403
0.0447623
0.0714604
0.0756477
0.0560182
0.0166215
-0.0348874
-0.0887103
-0.136875
-0.174551
-0.19994
-0.213009
-0.214175
-0.203405
-0.180493
-0.146178
-0.103082
-0.0556436
-0.00890756
0.0333361
0.0693516
0.0990109
0.117987
0.133368
0.149984
0.167905
0.186789
0.206441
0.226345
0.246098
0.265015
0.282575
0.297731
0.310015
0.318531
0.322859
0.322436
0.317178
0.307242
0.292714
0.274356
0.252727
0.228613
0.202896
0.176426
0.149701
0.123654
0.0985554
0.0749623
0.0527624
0.0321568
0.0125059
-0.0144764
-0.0558521
-0.107013
-0.167243
-0.2326
-0.296897
-0.353264
-0.395783
-0.421324
-0.430175
-0.424545
-0.407932
-0.383958
-0.35548
-0.323999
-0.290763
-0.256602
-0.221814
-0.187384
-0.154421
-0.12329
-0.094567
-0.069303
-0.047802
-0.0298688
-0.0152402
-0.00164977
0.00861127
0.0128275
0.00732174
0.00111971
-0.0124757
-0.030677
-0.0547603
-0.0839881
-0.118053
-0.155687
-0.195466
-0.235861
-0.275272
-0.312055
-0.344977
-0.372645
-0.394133
-0.408634
-0.41595
-0.41629
-0.410157
-0.398702
-0.382992
-0.364383
-0.343764
-0.32209
-0.29985
-0.276575
-0.25111
-0.223101
-0.194364
-0.170968
-0.163975
-0.113507
-0.131164
-0.147796
-0.156718
-0.156057
-0.142446
-0.116655
-0.0788734
-0.0349762
0.00908046
0.0437359
0.0614784
0.0572429
0.0320113
-0.00929942
-0.0581313
-0.10576
-0.145755
-0.174727
-0.191445
-0.195643
-0.187205
-0.166155
-0.133527
-0.0922156
-0.0468435
-0.00247185
0.0373123
0.0710517
0.0987113
0.116108
0.130275
0.145666
0.162316
0.179921
0.19828
0.216912
0.235421
0.253168
0.269679
0.283933
0.295485
0.303492
0.307537
0.307078
0.302039
0.292573
0.278763
0.261351
0.240865
0.218068
0.193822
0.16889
0.143782
0.119389
0.0959469
0.0739486
0.0532841
0.0341625
0.0160123
-0.00900699
-0.0476926
-0.0957324
-0.152624
-0.214693
-0.275936
-0.329465
-0.369578
-0.393212
-0.400436
-0.393452
-0.375664
-0.350648
-0.320982
-0.288287
-0.254095
-0.218937
-0.183503
-0.149344
-0.117005
-0.0867703
-0.0601362
-0.0379918
-0.0194266
-0.00327944
0.0122217
0.0196574
0.0175753
0.00848633
-0.0152197
-0.0216968
-0.0253213
-0.0397074
-0.060516
-0.0874206
-0.11874
-0.152388
-0.186829
-0.219553
-0.249525
-0.275322
-0.296221
-0.311589
-0.320866
-0.324253
-0.321788
-0.314282
-0.30259
-0.287535
-0.270084
-0.251195
-0.232208
-0.213725
-0.195826
-0.178464
-0.161026
-0.142161
-0.122157
-0.105705
-0.10183
-0.065646
-0.0815682
-0.0997438
-0.114946
-0.124407
-0.124157
-0.113111
-0.0904346
-0.0577855
-0.0196404
0.0164658
0.0422766
0.0503107
0.0381753
0.00804144
-0.0336167
-0.0784923
-0.11907
-0.150475
-0.17028
-0.177374
-0.171324
-0.152261
-0.121432
-0.0819839
-0.0387183
0.00330645
0.0407006
0.0722656
0.0980345
0.113959
0.127007
0.141264
0.156726
0.173127
0.190267
0.207699
0.225029
0.241662
0.257169
0.270558
0.281404
0.288913
0.292682
0.292186
0.287353
0.278335
0.265212
0.248704
0.229308
0.20777
0.184918
0.161441
0.137863
0.11503
0.0931342
0.072611
0.0533678
0.0356259
0.0188662
-0.00432869
-0.0404834
-0.08556
-0.139239
-0.198109
-0.256322
-0.307084
-0.344798
-0.366446
-0.372039
-0.363681
-0.344728
-0.318609
-0.287754
-0.254146
-0.219194
-0.183347
-0.148152
-0.114882
-0.0833885
-0.0550896
-0.0318761
-0.0128334
0.00319123
0.0137342
0.0113304
-0.00608507
-0.0328795
-0.055049
-0.0860705
-0.075953
-0.0811541
-0.0938819
-0.113382
-0.13924
-0.168414
-0.199617
-0.228506
-0.254647
-0.275143
-0.290676
-0.299805
-0.302751
-0.299297
-0.289853
-0.275546
-0.257467
-0.237078
-0.215828
-0.194721
-0.174489
-0.155393
-0.138428
-0.123646
-0.109873
-0.0959693
-0.0822223
-0.0691317
-0.0584184
-0.0561402
-0.0300882
-0.0429194
-0.0594665
-0.0759032
-0.090418
-0.0990313
-0.0991569
-0.0889245
-0.0680365
-0.0387597
-0.00625448
0.0223159
0.038611
0.0374277
0.0181115
-0.0152064
-0.0554937
-0.0950197
-0.127672
-0.149837
-0.159545
-0.155836
-0.138815
-0.109872
-0.0723422
-0.0312068
0.00849747
0.0435801
0.0730714
0.097056
0.11161
0.123623
0.136832
0.151186
0.166454
0.182443
0.198744
0.21496
0.230531
0.245078
0.257641
0.267806
0.274833
0.278332
0.277797
0.27316
0.264567
0.2521
0.236456
0.218103
0.197765
0.176233
0.154133
0.132007
0.110644
0.0901852
0.0710279
0.053109
0.0366549
0.0211811
-0.000324955
-0.0341013
-0.0763686
-0.12697
-0.182735
-0.237977
-0.286018
-0.321291
-0.340959
-0.344932
-0.33522
-0.315096
-0.287824
-0.255968
-0.221714
-0.186177
-0.150371
-0.116267
-0.0841277
-0.0545625
-0.0305803
-0.0126557
0.000867863
0.0045532
-0.0107514
-0.0456078
-0.0766621
-0.0990392
-0.126287
-0.157861
-0.169233
-0.188353
-0.207239
-0.229188
-0.256679
-0.286314
-0.31505
-0.33893
-0.355349
-0.364956
-0.367057
-0.36219
-0.349589
-0.329555
-0.303551
-0.273056
-0.240829
-0.208269
-0.177296
-0.149028
-0.124231
-0.102606
-0.0839468
-0.0693424
-0.0589824
-0.0501376
-0.0398472
-0.0293508
-0.0221697
-0.0221156
-0.00488814
-0.014788
-0.0281899
-0.0430283
-0.0583933
-0.0712729
-0.0788044
-0.0783933
-0.0681813
-0.0483445
-0.0222434
0.00476211
0.0252192
0.0321759
0.0223908
-0.00242423
-0.036878
-0.0739169
-0.106683
-0.130416
-0.142327
-0.140833
-0.12584
-0.0988325
-0.0632596
-0.0242546
0.0131628
0.0460175
0.0735364
0.0958397
0.109117
0.120172
0.132411
0.145736
0.159939
0.174842
0.190074
0.20524
0.219801
0.233431
0.245205
0.254717
0.261277
0.264513
0.263939
0.259487
0.251301
0.23946
0.224641
0.207284
0.188089
0.167809
0.147013
0.126263
0.106279
0.0871556
0.0692686
0.0525907
0.0373389
0.0230482
0.00310141
-0.02844
-0.0680464
-0.115708
-0.168473
-0.220808
-0.266135
-0.299019
-0.316731
-0.319095
-0.308046
-0.286729
-0.258379
-0.225777
-0.191065
-0.155402
-0.120535
-0.0879887
-0.0578331
-0.0328206
-0.0158273
-0.00541262
-0.00551535
-0.0256399
-0.0604741
-0.0931963
-0.0981437
-0.120864
-0.158222
-0.202317
-0.24835
-0.303411
-0.349657
-0.396192
-0.43654
-0.478999
-0.515043
-0.540061
-0.548275
-0.541278
-0.523311
-0.496037
-0.461675
-0.42012
-0.372722
-0.321386
-0.269174
-0.219533
-0.174123
-0.134374
-0.100823
-0.0736318
-0.0514691
-0.0337222
-0.0213409
-0.0145236
-0.00985114
-0.00357789
0.0024316
0.00262469
0.00923516
0.00334992
-0.00599376
-0.0176583
-0.0311996
-0.0448911
-0.0560931
-0.0620531
-0.0606671
-0.0499217
-0.0311127
-0.00839228
0.0125418
0.0245849
0.0225671
0.00560895
-0.0224989
-0.0558904
-0.0877277
-0.112262
-0.125876
-0.126394
-0.113375
-0.0883024
-0.0547115
-0.0178187
0.0173592
0.048069
0.0737174
0.0944388
0.10653
0.116694
0.128034
0.140404
0.153612
0.167488
0.181711
0.195887
0.209491
0.222245
0.233266
0.242153
0.248263
0.251244
0.250631
0.246356
0.238557
0.227313
0.213283
0.196877
0.17877
0.159674
0.140116
0.120667
0.101975
0.0840925
0.0673934
0.0518825
0.037749
0.0245413
0.00603318
-0.0234071
-0.0604956
-0.105356
-0.155232
-0.204722
-0.247361
-0.277921
-0.293711
-0.294497
-0.282131
-0.259647
-0.230386
-0.197272
-0.162395
-0.127312
-0.0940918
-0.0637477
-0.0375639
-0.0195902
-0.0104015
-0.0095043
-0.0249307
-0.054836
-0.0803654
-0.0879788
-0.0921611
-0.114067
-0.158522
-0.233443
-0.325754
-0.397086
-0.479999
-0.552007
-0.619791
-0.676495
-0.723815
-0.751989
-0.755362
-0.732551
-0.690881
-0.639895
-0.583241
-0.521997
-0.455297
-0.385367
-0.315158
-0.249382
-0.190927
-0.141394
-0.100565
-0.0678969
-0.0422617
-0.02221
-0.00733997
0.00190245
0.00654628
0.00964773
0.0130307
0.0139435
0.0129327
0.0114637
0.00715562
-0.000431255
-0.0101885
-0.0219665
-0.0342623
-0.0434865
-0.0479249
-0.0451764
-0.0338064
-0.0164219
0.00234889
0.0164413
0.0201394
0.0100284
-0.0119178
-0.0409281
-0.0708998
-0.0955314
-0.110345
-0.112589
-0.101458
-0.0782859
-0.0466711
-0.0118656
0.0211365
0.0497844
0.0736602
0.0928977
0.10389
0.113225
0.123728
0.135212
0.147493
0.160401
0.173669
0.186913
0.199611
0.21153
0.221834
0.230126
0.235803
0.238537
0.237885
0.233778
0.226348
0.215675
0.202399
0.186898
0.169826
0.151852
0.133467
0.115249
0.0977643
0.0810365
0.0654544
0.0510404
0.0379411
0.0257219
0.00854269
-0.018921
-0.0536318
-0.0958273
-0.142928
-0.189632
-0.229637
-0.257944
-0.271859
-0.271116
-0.257456
-0.233896
-0.203938
-0.170569
-0.135983
-0.10221
-0.0712801
-0.0442795
-0.0239238
-0.0132375
-0.0103765
-0.0179563
-0.0411914
-0.0624085
-0.0661964
-0.0676853
-0.0760307
-0.115225
-0.200651
-0.280729
-0.442186
-0.423943
-0.554166
-0.618009
-0.717306
-0.768804
-0.809711
-0.833738
-0.831446
-0.802668
-0.752824
-0.692924
-0.627082
-0.55644
-0.480358
-0.401482
-0.32399
-0.252548
-0.190356
-0.138834
-0.097611
-0.0655866
-0.0414494
-0.0235263
-0.0107954
-0.00290267
0.00150768
0.0048926
0.00973341
0.0133183
0.0145838
0.0145345
0.0135995
0.0103019
0.00421663
-0.00394189
-0.0149258
-0.0254585
-0.0329419
-0.0357648
-0.0314601
-0.0198359
-0.00444708
0.00927131
0.0163116
0.0119045
-0.00442265
-0.0288767
-0.0562361
-0.080284
-0.0958414
-0.0994918
-0.0901067
-0.0687966
-0.0391165
-0.00636288
0.0245347
0.0512075
0.0734034
0.0912512
0.10123
0.109792
0.119514
0.130175
0.141593
0.153593
0.165958
0.178325
0.190166
0.201291
0.210912
0.218637
0.223902
0.226397
0.225708
0.221761
0.214683
0.204556
0.191998
0.17736
0.16127
0.144359
0.127088
0.110029
0.0936707
0.0780221
0.0634939
0.0501073
0.0379594
0.0266431
0.010695
-0.0149111
-0.0473777
-0.08705
-0.131486
-0.175445
-0.212936
-0.239055
-0.251144
-0.248924
-0.234014
-0.209533
-0.179119
-0.145808
-0.112069
-0.0802597
-0.0522624
-0.0296142
-0.0152614
-0.00947716
-0.0104367
-0.0231385
-0.0402513
-0.0419448
-0.0373302
-0.0556602
-0.103051