/*--------------------------------*- C++ -*----------------------------------*\
| =========                 |                                                 |
| \\      /  F ield         | OpenFOAM: The Open Source CFD Toolbox           |
|  \\    /   O peration     | Version:  3.0.1                                 |
|   \\  /    A nd           | Web:      www.OpenFOAM.org                      |
|    \\/     M anipulation  |                                                 |
\*---------------------------------------------------------------------------*/
FoamFile
{
    version     2.0;
    format      ascii;
    class       volVectorField;
    location    "101.888300098935147";
    object      U;
}
// * * * * * * * * * * * * * * * * * * * * * * * * * * * * * * * * * * * * * //

dimensions      [0 1 -1 0 0 0 0];

internalField   nonuniform List<vector> 
8400
(
(-0.048274 -0.0669058 2.01954e-17)
(-0.0560575 0.00163218 2.09156e-17)
(-0.0553045 0.0491745 2.35889e-17)
(-0.0459593 0.0751386 2.68763e-17)
(-0.0324837 0.0794542 3.87493e-17)
(-0.0190658 0.0652018 3.70092e-17)
(-0.00805978 0.0402136 1.46123e-17)
(0.0002203 0.0151771 1.46159e-17)
(0.00665986 -0.00146711 1.50449e-17)
(0.0126559 -0.00754691 1.89505e-18)
(0.0199858 -0.0058886 -9.32247e-18)
(0.0301947 -0.000879994 -8.13298e-18)
(0.0438196 0.00403298 9.09646e-19)
(0.0606902 0.00765118 3.95185e-18)
(0.0803703 0.0105787 7.24911e-18)
(0.102035 0.0140258 3.5474e-18)
(0.124539 0.0188983 1.72187e-18)
(0.146868 0.0256634 -1.25776e-18)
(0.168732 0.0345053 3.42573e-18)
(0.190657 0.0459152 5.58223e-18)
(0.213094 0.0608741 3.45837e-18)
(0.236122 0.0796438 -1.16602e-18)
(0.260102 0.102585 8.91483e-19)
(0.285001 0.130216 -9.46175e-19)
(0.310205 0.163063 -5.21093e-19)
(0.334284 0.201289 -9.87925e-19)
(0.354849 0.243902 -7.46984e-19)
(0.369161 0.287864 -2.14278e-19)
(0.376152 0.328373 -7.53129e-19)
(0.377705 0.361117 -6.59156e-19)
(0.365796 0.380915 -9.42783e-19)
(0.321746 0.362118 -3.91917e-19)
(0.292916 0.359207 -2.38514e-19)
(0.250852 0.340661 -6.31358e-20)
(0.217824 0.324392 1.14039e-18)
(0.179473 0.299382 -3.43513e-18)
(0.147713 0.273787 -9.13986e-19)
(0.115033 0.242594 -2.34648e-18)
(0.0878354 0.209822 -4.66445e-18)
(0.0625767 0.173537 -2.96463e-18)
(0.0424096 0.135515 -2.60292e-18)
(0.0259232 0.0954416 -2.95035e-18)
(0.0143848 0.0541402 4.67594e-20)
(0.00751992 0.0118144 1.48246e-18)
(0.00558681 -0.0311793 -7.87648e-18)
(0.00865305 -0.0743334 -8.1907e-18)
(0.0166515 -0.117356 -1.08036e-17)
(0.0299649 -0.160131 -7.87572e-18)
(0.0476109 -0.201923 4.31379e-19)
(0.0711341 -0.243199 -4.80962e-18)
(0.0975378 -0.281693 -2.54316e-19)
(0.130822 -0.320002 6.41714e-20)
(0.164334 -0.352954 5.43153e-19)
(0.20641 -0.386936 1.34787e-18)
(0.244649 -0.412013 1.45963e-18)
(0.294022 -0.440291 4.21484e-18)
(0.333511 -0.454854 1.82017e-18)
(0.388327 -0.477483 4.27549e-18)
(0.423049 -0.476283 8.1287e-19)
(0.481639 -0.500944 7.19819e-18)
(0.497139 -0.474733 -4.18979e-18)
(0.498469 -0.434779 6.86341e-18)
(0.493936 -0.384695 4.47131e-18)
(0.480681 -0.329005 3.36162e-18)
(0.459307 -0.274098 4.51323e-18)
(0.43337 -0.224518 -6.66337e-18)
(0.406402 -0.181934 -8.04709e-18)
(0.38064 -0.14614 -1.01472e-17)
(0.357103 -0.116225 -3.66879e-18)
(0.335945 -0.0911846 5.00455e-18)
(0.316661 -0.0701829 4.039e-18)
(0.298135 -0.0526936 -4.17496e-19)
(0.278951 -0.0387081 2.03542e-19)
(0.258728 -0.0282946 1.14764e-18)
(0.236227 -0.0207647 4.46532e-18)
(0.210231 -0.016569 -1.04565e-17)
(0.180127 -0.0161085 -3.00118e-18)
(0.146103 -0.0194219 1.6842e-18)
(0.108974 -0.0264601 1.42041e-17)
(0.0705038 -0.0365587 7.86875e-18)
(0.0327799 -0.0486349 3.8134e-18)
(-0.00237849 -0.0620657 -5.23642e-18)
(-0.0335792 -0.0761795 -2.74514e-17)
(-0.0597821 -0.0900105 -2.77696e-17)
(-0.0807612 -0.102432 -1.71884e-17)
(-0.097078 -0.112334 -2.52141e-17)
(-0.109785 -0.11867 -4.66744e-17)
(-0.119707 -0.12109 -7.0846e-17)
(-0.127302 -0.120656 -4.49775e-17)
(-0.132439 -0.120726 -8.45227e-18)
(-0.133727 -0.126793 3.38901e-17)
(-0.12857 -0.135212 8.74473e-18)
(-0.118159 -0.150488 -2.33532e-17)
(-0.101266 -0.171061 -1.99259e-17)
(-0.0782049 -0.197485 -4.52261e-17)
(-0.0505136 -0.231711 -8.3643e-19)
(-0.021676 -0.276334 -5.42367e-17)
(0.00284114 -0.332241 -4.53028e-18)
(0.018377 -0.397173 6.79332e-18)
(0.0261119 -0.46686 -4.79752e-18)
(0.0335734 -0.537855 8.79433e-18)
(0.0473931 -0.608738 9.572e-18)
(0.0673472 -0.678301 1.44012e-17)
(0.0892654 -0.743494 1.33925e-17)
(0.110549 -0.799938 1.7031e-17)
(0.130891 -0.844282 1.50416e-17)
(0.150389 -0.875181 3.70226e-18)
(0.168784 -0.891421 2.34685e-17)
(0.185047 -0.890558 2.43941e-17)
(0.196914 -0.871095 1.19455e-17)
(0.202664 -0.835571 3.23506e-17)
(0.201604 -0.786997 2.13212e-17)
(0.193286 -0.727982 3.03967e-17)
(0.177474 -0.65963 2.98763e-17)
(0.153947 -0.58274 4.20381e-17)
(0.123258 -0.498702 2.75547e-17)
(0.0869481 -0.40961 3.80895e-17)
(0.0478474 -0.318498 3.75174e-17)
(0.00969643 -0.229047 3.45662e-17)
(-0.0236612 -0.145006 3.04113e-17)
(-0.215315 -0.286139 2.5516e-17)
(-0.190892 -0.187954 2.47175e-17)
(-0.157016 -0.0979203 3.43605e-17)
(-0.114113 -0.0187672 4.7236e-17)
(-0.0701388 0.0398852 3.33797e-17)
(-0.0311842 0.0746976 3.18702e-17)
(-0.00116771 0.0836413 3.01966e-17)
(0.0206108 0.0680457 3.21739e-17)
(0.0368712 0.0371946 4.45708e-17)
(0.0527037 0.00625051 2.92841e-17)
(0.0736618 -0.0128319 1.2894e-17)
(0.103015 -0.0172957 1.50169e-18)
(0.140746 -0.0117305 1.67747e-18)
(0.185051 -0.00146936 7.19778e-18)
(0.234644 0.0109137 1.64389e-18)
(0.288454 0.0256095 -3.53886e-19)
(0.344566 0.0439064 -2.59558e-18)
(0.400491 0.0670326 2.25385e-20)
(0.454365 0.0958836 5.83478e-18)
(0.505891 0.131371 9.06922e-18)
(0.555703 0.174409 5.5499e-19)
(0.603677 0.224804 -4.20739e-18)
(0.649044 0.282286 -9.6366e-18)
(0.689671 0.345917 -3.79005e-18)
(0.722099 0.413322 -1.54969e-18)
(0.742501 0.480267 -3.436e-18)
(0.748384 0.541349 -4.00803e-18)
(0.740197 0.591839 3.7685e-19)
(0.721419 0.629549 -1.94983e-18)
(0.695937 0.655018 -9.05281e-19)
(0.662642 0.667244 -1.76517e-18)
(0.584864 0.638767 -1.94367e-18)
(0.538855 0.63286 -2.89199e-18)
(0.465808 0.600823 -3.98139e-18)
(0.413043 0.57479 -5.53276e-18)
(0.346496 0.533024 -7.78004e-18)
(0.293954 0.489651 -2.34218e-18)
(0.236815 0.436575 -3.61556e-18)
(0.19045 0.378915 -1.3734e-17)
(0.145757 0.3152 -9.04964e-18)
(0.110538 0.2465 -7.21968e-18)
(0.0809872 0.174083 -1.0025e-17)
(0.0603814 0.0981011 -1.27664e-18)
(0.048007 0.0201144 -6.20154e-18)
(0.0444868 -0.0595676 -1.3765e-17)
(0.0500085 -0.139347 -2.24513e-17)
(0.0643375 -0.219006 -3.13938e-17)
(0.0885608 -0.29684 -1.86611e-17)
(0.119788 -0.373102 -6.04431e-18)
(0.162038 -0.445962 -2.63663e-18)
(0.207598 -0.514329 3.676e-18)
(0.26651 -0.579286 4.23848e-20)
(0.322581 -0.635446 1.8185e-18)
(0.395851 -0.690436 5.05754e-18)
(0.457385 -0.73052 3.42883e-18)
(0.54205 -0.774605 6.23414e-18)
(0.603168 -0.795315 3.29965e-18)
(0.695865 -0.829822 9.75571e-18)
(0.749841 -0.82878 3.51204e-18)
(0.847868 -0.85939 1.21296e-17)
(0.88947 -0.83993 9.08152e-18)
(0.925015 -0.806774 1.03354e-17)
(0.954946 -0.76076 7.41588e-18)
(0.975515 -0.701183 1.04131e-17)
(0.982485 -0.629795 4.87121e-18)
(0.974553 -0.55097 1.39322e-17)
(0.953973 -0.470299 2.39206e-18)
(0.925089 -0.392683 -1.42425e-18)
(0.892358 -0.32111 3.11793e-19)
(0.858831 -0.256573 9.01464e-19)
(0.825618 -0.198975 6.75773e-18)
(0.792165 -0.147845 -6.37481e-18)
(0.756939 -0.102744 8.63125e-18)
(0.719256 -0.0638446 7.09506e-18)
(0.677069 -0.0308723 8.87613e-18)
(0.628941 -0.00419125 4.548e-18)
(0.573914 0.0155793 5.96151e-18)
(0.51247 0.0284648 7.02365e-18)
(0.445824 0.0346175 1.11769e-17)
(0.376293 0.0345968 1.11189e-17)
(0.306154 0.0292581 2.5516e-17)
(0.237763 0.0196413 1.53515e-17)
(0.172552 0.00659229 1.3441e-17)
(0.111792 -0.008537 3.73311e-17)
(0.05598 -0.0246327 2.53107e-17)
(0.0053904 -0.0413213 1.15214e-17)
(-0.0392256 -0.0590802 -5.27958e-17)
(-0.0747029 -0.0786559 -6.38871e-17)
(-0.0956691 -0.102415 -3.12004e-17)
(-0.0948519 -0.129575 -2.25126e-17)
(-0.0788558 -0.16569 -2.61449e-17)
(-0.0601257 -0.199124 -2.85958e-17)
(-0.050491 -0.234397 -2.81397e-17)
(-0.0542392 -0.27595 3.18795e-18)
(-0.0607207 -0.327867 1.38692e-17)
(-0.0569247 -0.389052 1.12321e-17)
(-0.0396961 -0.453579 2.63341e-17)
(-0.0159728 -0.515119 9.36467e-18)
(0.00737505 -0.571295 1.77663e-17)
(0.0294122 -0.623477 9.37838e-18)
(0.0526544 -0.673475 2.3462e-17)
(0.0778605 -0.721327 3.49754e-17)
(0.102174 -0.765511 1.46829e-17)
(0.121827 -0.804143 2.61651e-17)
(0.135107 -0.835545 2.10518e-18)
(0.142547 -0.85823 2.61901e-17)
(0.145545 -0.871034 -9.97009e-18)
(0.145234 -0.874168 2.12077e-17)
(0.142036 -0.870331 5.66266e-18)
(0.135717 -0.861504 2.41761e-17)
(0.126 -0.845909 1.70662e-17)
(0.11226 -0.821664 4.69353e-17)
(0.0929092 -0.788645 2.66427e-17)
(0.0657262 -0.748059 5.65498e-17)
(0.0290228 -0.701178 4.14657e-17)
(-0.0172892 -0.648201 5.72207e-17)
(-0.0704843 -0.588966 5.62344e-17)
(-0.124832 -0.523281 4.73541e-17)
(-0.172276 -0.451297 4.33223e-17)
(-0.204833 -0.373232 3.03874e-17)
(-0.333416 -0.469476 5.25482e-17)
(-0.285333 -0.370169 4.48507e-17)
(-0.21682 -0.267144 1.80843e-17)
(-0.138834 -0.163795 3.46643e-17)
(-0.0642347 -0.0743463 2.18471e-17)
(0.000620137 -0.00417724 1.89738e-17)
(0.0492413 0.0450406 2.52132e-17)
(0.0809758 0.0695605 3.00767e-17)
(0.103414 0.0668226 3.8741e-17)
(0.125336 0.0453792 4.8578e-17)
(0.156147 0.0212369 4.40529e-17)
(0.201913 0.00680461 1.96126e-17)
(0.262191 0.00567361 2.37666e-18)
(0.331795 0.0148601 4.02551e-18)
(0.406482 0.030117 -3.0399e-18)
(0.484294 0.0498215 -8.61906e-19)
(0.563241 0.0749874 -6.02293e-18)
(0.640386 0.107637 4.61987e-18)
(0.712975 0.149279 6.35046e-18)
(0.779577 0.200254 7.80996e-18)
(0.839529 0.260015 7.49796e-18)
(0.891363 0.327197 3.05895e-18)
(0.932546 0.399428 -4.39354e-18)
(0.959704 0.47297 1.09536e-19)
(0.969748 0.542752 -1.18185e-18)
(0.961375 0.60323 -1.21987e-18)
(0.936102 0.649832 -5.23317e-19)
(0.898134 0.680376 3.50589e-19)
(0.852809 0.695743 -1.1015e-19)
(0.804626 0.699064 6.99964e-19)
(0.758768 0.694066 8.03126e-19)
(0.682603 0.682698 6.06218e-19)
(0.630752 0.666447 7.31085e-19)
(0.557039 0.645388 -2.97372e-19)
(0.499437 0.613516 3.74827e-19)
(0.429686 0.578065 -3.05198e-18)
(0.37237 0.529817 -1.0716e-17)
(0.310371 0.478451 -9.95685e-18)
(0.259427 0.414959 -1.65303e-17)
(0.209617 0.348479 -1.86316e-17)
(0.170487 0.272236 -9.41117e-18)
(0.136982 0.193205 -2.03307e-17)
(0.113743 0.10804 -2.82397e-17)
(0.0996694 0.0208837 -1.10177e-17)
(0.0957174 -0.0688354 -1.90356e-17)
(0.102189 -0.15828 -3.74209e-17)
(0.118534 -0.248091 -2.25404e-17)
(0.146674 -0.333639 -1.01075e-17)
(0.182017 -0.419257 3.36518e-18)
(0.230053 -0.495781 6.46421e-18)
(0.281064 -0.572104 9.15832e-18)
(0.346183 -0.635211 9.75869e-18)
(0.408587 -0.698072 9.42291e-18)
(0.48651 -0.745028 9.28384e-18)
(0.554878 -0.79149 7.1834e-18)
(0.640888 -0.821497 1.12622e-17)
(0.70915 -0.850202 6.24091e-18)
(0.799143 -0.865009 1.42459e-17)
(0.861336 -0.87682 2.7771e-18)
(0.953525 -0.881835 1.30943e-17)
(1.01054 -0.881565 2.71846e-18)
(1.07281 -0.872455 1.25864e-17)
(1.13427 -0.851197 9.88932e-18)
(1.19062 -0.814312 2.27679e-17)
(1.2366 -0.760271 1.33024e-17)
(1.2678 -0.690716 2.18398e-17)
(1.28253 -0.609916 4.69973e-18)
(1.28207 -0.523314 1.73702e-18)
(1.26979 -0.436109 5.09035e-18)
(1.24933 -0.352086 6.96097e-19)
(1.22348 -0.273844 1.00665e-17)
(1.19364 -0.202716 -1.90955e-19)
(1.15965 -0.138871 1.81107e-17)
(1.12216 -0.0829844 1.46114e-17)
(1.08042 -0.0363076 1.54007e-17)
(1.03425 0.00187522 1.27539e-17)
(0.982679 0.0319162 1.19195e-17)
(0.926699 0.0548515 9.85064e-18)
(0.866771 0.0711305 2.21939e-17)
(0.804699 0.0820846 1.91847e-17)
(0.740815 0.0879382 2.26316e-17)
(0.676766 0.0897797 1.99466e-17)
(0.61211 0.0871314 2.36681e-17)
(0.548125 0.0808493 3.84093e-18)
(0.483775 0.0696999 7.22206e-18)
(0.420414 0.0543792 8.49881e-18)
(0.35721 0.0328054 -2.2741e-18)
(0.297455 0.00665528 -7.84146e-18)
(0.242246 -0.0260658 -1.15672e-17)
(0.196686 -0.0465714 -3.12319e-17)
(0.104598 -0.0900822 -7.66924e-19)
(0.0461732 -0.143998 -5.71193e-18)
(0.0509614 -0.19369 2.48806e-17)
(0.0973183 -0.241087 8.16091e-17)
(0.155272 -0.282287 1.06346e-16)
(0.202658 -0.318302 5.44728e-17)
(0.2311 -0.352309 1.53363e-17)
(0.241907 -0.387274 7.8742e-17)
(0.24073 -0.424966 7.34427e-18)
(0.234193 -0.466003 -9.86938e-18)
(0.226645 -0.50939 -5.70969e-17)
(0.218563 -0.552823 -7.36231e-17)
(0.207735 -0.593823 -7.03721e-17)
(0.192057 -0.630319 -1.95149e-17)
(0.171885 -0.661024 -2.74618e-17)
(0.149576 -0.68555 1.29528e-18)
(0.127265 -0.704874 -3.98781e-18)
(0.105041 -0.720841 1.02952e-17)
(0.0813535 -0.733525 1.00987e-17)
(0.0556019 -0.740448 2.88671e-17)
(0.0291442 -0.739351 3.65352e-17)
(0.00251 -0.732165 5.29517e-17)
(-0.0240795 -0.719403 6.05047e-17)
(-0.0533608 -0.703816 6.17289e-17)
(-0.0894166 -0.685993 7.04617e-17)
(-0.135613 -0.666543 6.6901e-17)
(-0.191627 -0.644543 6.99391e-17)
(-0.251798 -0.617895 6.36542e-17)
(-0.304413 -0.582854 6.04614e-17)
(-0.335287 -0.535013 5.59769e-17)
(-0.400767 -0.620625 4.97284e-17)
(-0.347433 -0.5445 5.51589e-17)
(-0.247657 -0.446472 5.11584e-17)
(-0.13363 -0.332832 3.26921e-17)
(-0.028602 -0.22392 1.73324e-17)
(0.0605086 -0.129478 -2.87883e-18)
(0.130321 -0.0524034 1.00819e-17)
(0.17768 0.00534303 3.2578e-17)
(0.208377 0.0392834 2.68477e-17)
(0.235408 0.04809 3.24114e-17)
(0.272137 0.0410835 3.37206e-17)
(0.328607 0.0315243 2.39183e-17)
(0.405198 0.0295362 1.70212e-17)
(0.494231 0.0376938 2.19671e-17)
(0.587329 0.0540218 1.30689e-17)
(0.67999 0.0768258 1.25636e-17)
(0.769689 0.106602 -4.515e-19)
(0.853751 0.144975 5.21119e-18)
(0.929571 0.192969 5.59224e-18)
(0.99511 0.25033 7.05467e-18)
(1.04849 0.31554 -4.57875e-18)
(1.08734 0.385964 2.48782e-18)
(1.10891 0.457667 -1.20582e-18)
(1.11099 0.525628 2.02355e-18)
(1.0931 0.584537 7.62598e-18)
(1.05723 0.629924 5.76875e-19)
(1.00767 0.659138 -3.11234e-19)
(0.949986 0.671969 -6.02968e-19)
(0.889661 0.670681 1.42924e-18)
(0.831276 0.658988 1.25027e-18)
(0.782032 0.642793 2.44174e-18)
(0.715061 0.645216 2.30689e-18)
(0.664006 0.622711 3.44801e-18)
(0.597282 0.612619 6.06534e-19)
(0.541718 0.57869 4.32413e-18)
(0.476413 0.552296 3.57437e-18)
(0.421076 0.504586 -4.56818e-18)
(0.361287 0.460431 -4.93238e-18)
(0.311683 0.398602 -1.08817e-17)
(0.262589 0.337378 -9.92481e-18)
(0.224147 0.262956 -7.27409e-18)
(0.19072 0.187285 -1.88215e-17)
(0.167639 0.103644 -2.12566e-17)
(0.153566 0.0184741 -1.0851e-17)
(0.149718 -0.0698478 -2.29595e-17)
(0.156475 -0.157516 -2.82619e-17)
(0.172988 -0.246034 -7.26691e-18)
(0.201884 -0.328626 9.22484e-18)
(0.237297 -0.412817 2.01084e-18)
(0.28552 -0.483994 1.40639e-17)
(0.33618 -0.558708 1.39058e-17)
(0.400127 -0.613725 1.07549e-17)
(0.461515 -0.675284 8.89925e-18)
(0.535888 -0.711662 1.03775e-17)
(0.602637 -0.758044 1.09278e-17)
(0.681982 -0.775473 1.19869e-17)
(0.748621 -0.806758 1.00339e-17)
(0.828677 -0.807286 1.19397e-17)
(0.890561 -0.825912 1.14632e-17)
(0.970267 -0.814348 1.43931e-17)
(1.03166 -0.825864 1.15554e-17)
(1.10561 -0.832344 6.47494e-18)
(1.18395 -0.828122 1.39391e-17)
(1.26211 -0.808996 2.4152e-18)
(1.33473 -0.772033 1.64539e-17)
(1.39652 -0.717031 7.84439e-18)
(1.44363 -0.646496 7.90244e-18)
(1.47444 -0.564716 4.75666e-18)
(1.48986 -0.476876 1.14205e-17)
(1.49197 -0.387673 5.68938e-18)
(1.48378 -0.301525 2.45453e-17)
(1.46704 -0.220736 7.39288e-18)
(1.44358 -0.147449 1.43722e-17)
(1.41597 -0.0829273 7.72701e-18)
(1.38468 -0.0280995 2.16208e-17)
(1.35052 0.0180427 6.86213e-18)
(1.31305 0.0564416 1.58574e-17)
(1.27437 0.0895021 2.34949e-17)
(1.23381 0.117609 1.44132e-17)
(1.19333 0.143072 1.20006e-17)
(1.15066 0.1645 1.93859e-17)
(1.10877 0.184554 2.05249e-18)
(1.06367 0.19968 9.34682e-18)
(1.02091 0.21416 1.30008e-18)
(0.973442 0.221632 1.66937e-17)
(0.932461 0.230761 1.48395e-17)
(0.883493 0.229534 1.67025e-17)
(0.852388 0.23745 1.14026e-17)
(0.798411 0.225408 2.11709e-17)
(0.802587 0.244557 2.40447e-17)
(0.709723 0.208651 -1.31094e-18)
(0.594773 0.147413 5.73176e-19)
(0.479414 0.0772324 6.79687e-18)
(0.376414 0.00542949 -1.92289e-17)
(0.302186 -0.0604392 6.07382e-17)
(0.26616 -0.116481 6.88855e-17)
(0.264577 -0.161317 6.25351e-17)
(0.283676 -0.196363 8.7794e-17)
(0.30861 -0.224635 7.45329e-17)
(0.330235 -0.247725 8.50788e-17)
(0.344474 -0.267659 6.53621e-17)
(0.349076 -0.286666 4.50922e-17)
(0.342236 -0.306401 3.89708e-20)
(0.323056 -0.328539 -8.3125e-17)
(0.292977 -0.354059 8.27741e-18)
(0.256144 -0.383139 1.77271e-17)
(0.217149 -0.415506 5.563e-18)
(0.177292 -0.450729 -2.16977e-17)
(0.133588 -0.486954 -1.01154e-16)
(0.0825971 -0.520285 -1.96767e-17)
(0.0253749 -0.550835 -4.16318e-17)
(-0.0322022 -0.579857 -4.87616e-18)
(-0.0838692 -0.604245 4.49724e-17)
(-0.128616 -0.623402 4.38914e-17)
(-0.170774 -0.636126 6.52578e-17)
(-0.215316 -0.643858 7.77277e-17)
(-0.265318 -0.649255 5.74307e-17)
(-0.320752 -0.653277 6.77792e-17)
(-0.373862 -0.653679 5.6846e-17)
(-0.406929 -0.645133 4.59149e-17)
(-0.433208 -0.653574 3.94359e-17)
(-0.400764 -0.637799 4.6345e-17)
(-0.284507 -0.57754 3.42387e-17)
(-0.127012 -0.479483 2.81601e-17)
(0.0207035 -0.368813 1.11138e-17)
(0.140565 -0.263848 6.39465e-18)
(0.23181 -0.170402 2.60451e-17)
(0.298043 -0.0916221 4.12445e-17)
(0.345487 -0.0287357 2.86125e-17)
(0.383695 0.0128312 8.36307e-18)
(0.426726 0.0340349 2.00389e-17)
(0.48825 0.0431324 1.04248e-17)
(0.571153 0.0497392 1.82353e-17)
(0.667415 0.0604702 1.14944e-17)
(0.766209 0.0776974 9.30873e-18)
(0.860723 0.101919 6.32299e-18)
(0.947864 0.13369 2.49798e-18)
(1.02559 0.173684 3.6401e-18)
(1.09203 0.222265 2.47719e-18)
(1.14516 0.27901 -2.94901e-19)
(1.18272 0.342165 3.1716e-18)
(1.20237 0.408558 5.5468e-18)
(1.2022 0.473697 -2.80686e-18)
(1.18186 0.532496 1.52417e-18)
(1.14315 0.580304 5.86816e-18)
(1.09001 0.613865 2.36663e-18)
(1.02774 0.631855 1.99711e-18)
(0.961879 0.635072 2.35153e-18)
(0.897444 0.626148 5.01118e-18)
(0.838594 0.608708 4.96598e-18)
(0.792245 0.589481 4.48848e-18)
(0.730435 0.596447 4.35803e-18)
(0.684078 0.573322 6.55559e-18)
(0.622068 0.567573 3.80908e-18)
(0.571293 0.534981 5.72598e-18)
(0.510098 0.51333 5.15207e-18)
(0.458803 0.468468 3.45204e-18)
(0.402249 0.429484 1.89607e-18)
(0.355608 0.371447 -6.97354e-18)
(0.308772 0.315557 -1.17341e-17)
(0.272297 0.245413 -1.63583e-18)
(0.240334 0.174894 -1.46981e-17)
(0.218264 0.0956475 -8.76553e-19)
(0.204763 0.0152764 -8.57581e-18)
(0.201176 -0.0685284 -8.22243e-18)
(0.207891 -0.151481 -2.52076e-17)
(0.224017 -0.235444 -6.98588e-18)
(0.252412 -0.313122 1.73449e-18)
(0.286589 -0.392588 2.96517e-18)
(0.33316 -0.458298 2.48633e-17)
(0.381729 -0.528237 1.02119e-17)
(0.442877 -0.577506 1.24977e-17)
(0.500951 -0.634663 1.25587e-17)
(0.571371 -0.665453 1.41544e-17)
(0.633451 -0.708303 1.25547e-17)
(0.70795 -0.72073 1.24843e-17)
(0.768962 -0.750017 1.21024e-17)
(0.843556 -0.746208 1.38142e-17)
(0.899903 -0.764851 1.39934e-17)
(0.973714 -0.749063 1.65506e-17)
(1.03192 -0.763067 1.69886e-17)
(1.10641 -0.774637 1.4487e-17)
(1.18913 -0.777207 1.35977e-17)
(1.27565 -0.766455 1.43968e-17)
(1.36078 -0.738985 1.95445e-17)
(1.43922 -0.693562 2.31744e-17)
(1.50621 -0.631334 9.3289e-18)
(1.5584 -0.555502 2.70237e-17)
(1.59457 -0.47062 3.08948e-17)
(1.61519 -0.381545 3.52656e-17)
(1.62226 -0.293611 1.13906e-17)
(1.61767 -0.209423 1.60251e-17)
(1.60524 -0.132863 4.9932e-18)
(1.58747 -0.0653214 7.68277e-18)
(1.56599 -0.00672807 3.72748e-18)
(1.54246 0.0445287 1.50092e-17)
(1.51789 0.089341 1.03255e-17)
(1.49402 0.130822 7.48456e-18)
(1.46995 0.168427 1.59504e-17)
(1.4472 0.206037 -1.6549e-18)
(1.42258 0.239307 8.50919e-18)
(1.40016 0.274766 1.25372e-17)
(1.37353 0.303206 -3.22987e-19)
(1.35225 0.337521 -7.10812e-18)
(1.32301 0.359955 3.24165e-18)
(1.30667 0.396356 -1.29053e-17)
(1.27423 0.412541 1.14609e-18)
(1.26949 0.457987 -7.41593e-18)
(1.22899 0.465769 -5.9464e-19)
(1.2465 0.529124 3.76629e-19)
(1.18818 0.522801 1.31082e-18)
(1.11437 0.5035 -5.19275e-18)
(1.0336 0.477416 6.00728e-18)
(0.947863 0.444588 -1.43723e-17)
(0.859977 0.404972 7.56412e-18)
(0.77321 0.359405 -1.46349e-17)
(0.691526 0.310202 -9.5733e-18)
(0.618233 0.260729 -6.20995e-18)
(0.555135 0.213578 1.04331e-17)
(0.502515 0.170341 -2.27423e-17)
(0.458886 0.13172 1.08129e-18)
(0.421401 0.0974986 -3.32941e-17)
(0.386657 0.0667407 1.14553e-17)
(0.351434 0.0378443 2.3349e-17)
(0.313265 0.00894255 8.54044e-18)
(0.271242 -0.0214884 -5.07445e-17)
(0.225464 -0.054294 -3.54726e-17)
(0.176013 -0.0898106 -9.03157e-17)
(0.123108 -0.128606 -2.73396e-18)
(0.0677598 -0.171315 3.37269e-17)
(0.0110422 -0.217418 -1.01283e-17)
(-0.0437939 -0.264249 -3.17066e-17)
(-0.0950897 -0.311711 -6.50397e-17)
(-0.145896 -0.359355 -6.23696e-18)
(-0.199858 -0.40653 9.16865e-19)
(-0.254799 -0.45214 1.6915e-17)
(-0.305239 -0.495986 4.02356e-17)
(-0.350558 -0.536465 4.5015e-17)
(-0.394505 -0.573768 3.29129e-17)
(-0.431296 -0.610553 4.98853e-17)
(-0.406905 -0.499929 4.73772e-17)
(-0.427203 -0.578288 5.05074e-17)
(-0.347044 -0.598802 5.37703e-17)
(-0.162979 -0.553076 3.96653e-17)
(0.0418146 -0.465351 1.76508e-17)
(0.214482 -0.369123 5.62047e-18)
(0.343883 -0.277701 3.51986e-18)
(0.434064 -0.193138 2.16724e-17)
(0.504269 -0.115125 1.93269e-17)
(0.561587 -0.0488728 1.54415e-17)
(0.613925 -0.000220399 1.8517e-17)
(0.675849 0.0326655 1.77293e-17)
(0.753899 0.0558463 2.17952e-17)
(0.842372 0.0752946 7.04537e-18)
(0.931427 0.0961664 8.64221e-18)
(1.01401 0.121601 7.3815e-18)
(1.08716 0.153041 7.65107e-18)
(1.14948 0.191185 8.2524e-18)
(1.19975 0.236523 1.14444e-17)
(1.23624 0.288892 2.26422e-18)
(1.25675 0.346778 -4.06698e-19)
(1.25921 0.40704 5.56072e-18)
(1.24256 0.465216 4.49556e-19)
(1.20766 0.516496 5.42915e-18)
(1.15743 0.55677 3.35939e-18)
(1.09647 0.58343 2.93724e-18)
(1.03003 0.595676 3.75973e-18)
(0.963089 0.594496 3.64197e-18)
(0.900101 0.582303 2.87546e-18)
(0.844539 0.562442 3.73602e-18)
(0.802433 0.542019 3.58124e-18)
(0.74438 0.551365 9.14384e-19)
(0.702649 0.528656 -5.60171e-19)
(0.644632 0.52559 3.06494e-18)
(0.598118 0.494671 1.78934e-18)
(0.54082 0.476307 5.78098e-18)
(0.493108 0.43428 5.06099e-18)
(0.439891 0.399243 1.1412e-17)
(0.395979 0.344945 2.05757e-18)
(0.35166 0.29357 -1.62978e-17)
(0.317083 0.227797 -1.40174e-17)
(0.286934 0.162163 -1.61618e-18)
(0.265967 0.0875775 -1.56395e-17)
(0.253175 0.012137 -9.03328e-18)
(0.249873 -0.0668428 -2.41583e-17)
(0.25642 -0.144897 -1.29408e-17)
(0.272179 -0.223953 1.81273e-17)
(0.299637 -0.296889 6.61667e-18)
(0.332445 -0.371231 1.65279e-17)
(0.376911 -0.43228 1.95381e-17)
(0.423469 -0.49727 8.3322e-18)
(0.481438 -0.542113 1.37994e-17)
(0.536564 -0.594988 1.32446e-17)
(0.602831 -0.621686 8.83781e-18)
(0.661021 -0.661309 1.10827e-17)
(0.730832 -0.670203 1.13265e-17)
(0.787135 -0.697601 1.38252e-17)
(0.85706 -0.690873 1.73162e-17)
(0.908183 -0.708968 1.85598e-17)
(0.977719 -0.690673 2.38342e-17)
(1.03133 -0.705733 2.28025e-17)
(1.10243 -0.719423 1.52204e-17)
(1.18366 -0.724708 2.14122e-17)
(1.27109 -0.717342 9.34247e-18)
(1.35975 -0.694003 1.92515e-17)
(1.44455 -0.653218 4.91905e-18)
(1.52051 -0.595414 2.05282e-17)
(1.5834 -0.523295 2.70748e-17)
(1.63063 -0.440706 3.53661e-17)
(1.66158 -0.353069 1.95091e-17)
(1.67717 -0.264783 2.37138e-17)
(1.67964 -0.181283 5.68878e-18)
(1.67345 -0.104946 3.51299e-18)
(1.66072 -0.0367089 5.40563e-18)
(1.64449 0.0236065 7.21279e-18)
(1.62619 0.0775752 1.46303e-17)
(1.60842 0.126313 1.13664e-17)
(1.59062 0.172798 1.52281e-17)
(1.57425 0.216167 5.95328e-18)
(1.55709 0.260501 4.3638e-18)
(1.54098 0.300965 1.40557e-17)
(1.52297 0.344953 1.03534e-17)
(1.50617 0.381645 1.06419e-17)
(1.48711 0.426795 5.89287e-18)
(1.46991 0.459264 1.38183e-17)
(1.45097 0.509627 1.54241e-17)
(1.43307 0.537565 2.34418e-17)
(1.41497 0.598528 7.31374e-18)
(1.3936 0.620196 1.31564e-17)
(1.37795 0.698083 9.78964e-18)
(1.3478 0.713754 1.93959e-17)
(1.31005 0.729424 7.83083e-18)
(1.26674 0.744044 2.50934e-17)
(1.21787 0.755994 2.22695e-17)
(1.16342 0.763401 1.8754e-17)
(1.10379 0.764795 2.11032e-17)
(1.03993 0.759696 1.02083e-17)
(0.972665 0.748792 1.47759e-17)
(0.90296 0.732971 3.05347e-17)
(0.832039 0.712895 2.99779e-18)
(0.760943 0.689088 2.45998e-17)
(0.68982 0.662215 -2.06221e-17)
(0.619131 0.632338 2.79563e-17)
(0.548961 0.599356 1.21262e-17)
(0.478719 0.563192 3.02552e-17)
(0.408316 0.522976 -1.1794e-17)
(0.338159 0.478269 -1.363e-17)
(0.26714 0.429369 -1.60181e-17)
(0.19599 0.375628 -3.18638e-17)
(0.125293 0.316878 -6.24852e-17)
(0.0544571 0.25392 -3.10289e-17)
(-0.0151276 0.186725 1.01427e-17)
(-0.0816955 0.116156 8.55059e-18)
(-0.145537 0.0427806 6.82099e-18)
(-0.20337 -0.0324259 1.69955e-17)
(-0.254579 -0.106884 -1.66456e-17)
(-0.299471 -0.181742 -2.7673e-18)
(-0.336099 -0.25184 -2.88905e-17)
(-0.360257 -0.315654 4.00693e-18)
(-0.389332 -0.369074 2.56178e-17)
(-0.305603 -0.206092 3.87474e-17)
(-0.358213 -0.352792 3.40017e-17)
(-0.369832 -0.468619 4.66854e-17)
(-0.229483 -0.512437 5.51945e-17)
(0.00589808 -0.480132 2.86692e-17)
(0.240953 -0.411991 2.7394e-18)
(0.431485 -0.338832 4.97728e-18)
(0.56177 -0.268263 1.06557e-17)
(0.659409 -0.195184 1.3203e-17)
(0.741748 -0.120356 1.20197e-17)
(0.808583 -0.0531622 1.56242e-17)
(0.869285 0.00132338 1.79672e-17)
(0.934696 0.0437928 2.15568e-17)
(1.00419 0.0767329 3.25468e-18)
(1.07188 0.104809 5.60827e-18)
(1.13305 0.132532 2.24119e-18)
(1.18569 0.162857 1.28608e-17)
(1.22897 0.197722 1.20024e-17)
(1.26197 0.238433 7.38034e-18)
(1.28304 0.285442 8.15555e-18)
(1.28988 0.337691 2.05173e-18)
(1.28049 0.392331 6.24704e-18)
(1.25411 0.445108 3.77624e-18)
(1.21191 0.491405 6.26591e-18)
(1.15706 0.527282 6.19613e-18)
(1.09404 0.550242 7.48868e-18)
(1.02768 0.559492 1.01628e-17)
(0.962494 0.555861 5.95348e-18)
(0.902518 0.541554 9.31697e-18)
(0.850614 0.519867 9.14419e-18)
(0.812214 0.498301 1.08327e-17)
(0.758169 0.509728 5.90283e-18)
(0.720251 0.487476 2.37589e-18)
(0.666335 0.486788 -9.82224e-19)
(0.623429 0.4575 -3.26536e-18)
(0.57003 0.442033 -5.3503e-18)
(0.525472 0.402675 8.87718e-18)
(0.475556 0.371114 1.2689e-17)
(0.434083 0.320285 8.00724e-18)
(0.392253 0.272951 -6.83766e-18)
(0.359333 0.211255 -1.9614e-17)
(0.331036 0.150141 -3.86095e-19)
(0.311155 0.0800194 -4.94643e-19)
(0.299102 0.00924923 -6.88879e-18)
(0.296088 -0.0651012 -1.12718e-17)
(0.302443 -0.138494 5.95847e-18)
(0.31791 -0.212857 9.26602e-18)
(0.344269 -0.281274 1.2537e-18)
(0.375738 -0.350702 2.05472e-17)
(0.418099 -0.407529 1.46674e-17)
(0.462786 -0.467799 1.147e-17)
(0.517593 -0.508791 6.95307e-18)
(0.569993 -0.557533 4.69979e-18)
(0.63219 -0.580749 1.31915e-17)
(0.686989 -0.617234 1.93742e-17)
(0.752104 -0.623125 1.80872e-17)
(0.804549 -0.648649 2.39708e-17)
(0.869543 -0.639366 2.56085e-17)
(0.916461 -0.6569 2.96892e-17)
(0.981214 -0.63636 3.29673e-17)
(1.03082 -0.652552 3.14143e-17)
(1.09824 -0.667951 3.02852e-17)
(1.17651 -0.675121 2.87062e-17)
(1.26215 -0.669633 2.79716e-17)
(1.35036 -0.648244 1.82809e-17)
(1.43615 -0.609456 9.32561e-18)
(1.51455 -0.553627 1.65431e-17)
(1.58091 -0.483202 1.39512e-17)
(1.63204 -0.401998 2.55001e-17)
(1.66629 -0.315698 1.06139e-17)
(1.68475 -0.228558 1.29611e-17)
(1.6898 -0.146543 1.84922e-17)
(1.68514 -0.0712649 2.57213e-17)
(1.67338 -0.00350955 1.04568e-17)
(1.65824 0.0571911 3.71271e-17)
(1.64075 0.112093 3.0008e-17)
(1.62408 0.162975 9.67031e-18)
(1.60598 0.211681 1.80687e-17)
(1.5899 0.258309 1.78426e-17)
(1.57021 0.304809 1.21716e-17)
(1.55374 0.348756 1.42601e-17)
(1.53041 0.39471 8.60387e-18)
(1.51351 0.435912 -3.47103e-18)
(1.48525 0.48301 2.67876e-18)
(1.46887 0.521305 7.08822e-18)
(1.43399 0.572307 -2.81721e-18)
(1.41824 0.606482 9.93692e-18)
(1.37414 0.664349 7.04059e-18)
(1.35826 0.691406 9.1542e-18)
(1.30364 0.761323 3.57077e-18)
(1.28352 0.781689 -2.40863e-18)
(1.26136 0.811382 2.84901e-19)
(1.23636 0.846345 4.83209e-19)
(1.20783 0.883049 4.75443e-18)
(1.17508 0.918576 1.5042e-17)
(1.13757 0.950934 3.31944e-18)
(1.09491 0.97915 3.80986e-17)
(1.04715 1.00275 3.66237e-18)
(0.99464 1.02146 2.8694e-17)
(0.937781 1.03479 3.2221e-17)
(0.876814 1.04253 3.19556e-17)
(0.812011 1.04416 3.59964e-17)
(0.744179 1.0391 3.70681e-17)
(0.67428 1.02682 1.46427e-17)
(0.602566 1.00744 3.27188e-17)
(0.528316 0.980372 2.00229e-17)
(0.452223 0.945049 2.62497e-17)
(0.375163 0.901665 1.51386e-17)
(0.298618 0.849285 2.71099e-17)
(0.220142 0.787814 -1.64137e-17)
(0.141322 0.716927 3.87078e-18)
(0.0654559 0.638606 -3.16459e-17)
(-0.00494398 0.552565 3.30931e-17)
(-0.0744922 0.464015 1.19225e-18)
(-0.130419 0.369864 3.1018e-17)
(-0.173945 0.280467 3.64013e-18)
(-0.218158 0.186953 3.78166e-17)
(-0.274335 0.102418 -3.52152e-18)
(-0.311738 0.0020634 -2.11992e-18)
(-0.313358 -0.0388374 2.6105e-17)
(-0.142464 0.062592 3.87966e-17)
(-0.22248 -0.0917919 4.04505e-17)
(-0.298169 -0.243179 3.35764e-17)
(-0.243645 -0.357004 4.12035e-17)
(-0.0521777 -0.396795 3.98889e-17)
(0.204604 -0.376769 1.07678e-17)
(0.456752 -0.334147 -8.23697e-19)
(0.643271 -0.291286 5.30302e-18)
(0.772497 -0.242198 9.80391e-18)
(0.879696 -0.17843 -2.15897e-18)
(0.965157 -0.1091 -1.55307e-18)
(1.03089 -0.0425788 -9.10558e-18)
(1.0854 0.0156751 7.89615e-18)
(1.13461 0.0629666 6.55699e-18)
(1.17867 0.100541 7.21626e-18)
(1.21655 0.132531 7.35957e-18)
(1.24823 0.16293 1.10648e-17)
(1.27361 0.195184 9.75407e-18)
(1.29191 0.231814 8.00416e-18)
(1.30125 0.274126 8.90192e-18)
(1.29906 0.321654 7.77439e-18)
(1.28302 0.371923 1.00757e-17)
(1.25214 0.420913 1.07952e-17)
(1.20741 0.464049 1.4006e-17)
(1.15174 0.497298 1.57388e-17)
(1.08929 0.51802 1.1427e-17)
(1.02458 0.525274 1.22087e-17)
(0.961938 0.519789 7.43017e-18)
(0.905181 0.503786 1.27686e-17)
(0.856719 0.480651 1.0796e-17)
(0.821593 0.458208 1.2548e-17)
(0.771419 0.471196 1.32444e-17)
(0.736867 0.449511 1.17393e-17)
(0.686833 0.450723 7.68925e-18)
(0.647211 0.423082 3.95996e-18)
(0.597557 0.410111 -6.30126e-18)
(0.555963 0.373327 -6.3282e-18)
(0.509272 0.344893 1.97272e-20)
(0.470099 0.297319 6.61139e-19)
(0.430699 0.253687 5.54923e-18)
(0.39926 0.195779 -1.26986e-17)
(0.372738 0.138868 -4.76568e-18)
(0.353943 0.0729778 -3.29868e-18)
(0.342633 0.00663069 4.90141e-18)
(0.339905 -0.0633123 -1.46859e-17)
(0.346083 -0.132271 6.0391e-18)
(0.361265 -0.202179 -3.07449e-20)
(0.386443 -0.26624 3.6871e-18)
(0.416585 -0.331049 7.88204e-18)