/*--------------------------------*- C++ -*----------------------------------*\
| =========                 |                                                 |
| \\      /  F ield         | OpenFOAM: The Open Source CFD Toolbox           |
|  \\    /   O peration     | Version:  3.0.1                                 |
|   \\  /    A nd           | Web:      www.OpenFOAM.org                      |
|    \\/     M anipulation  |                                                 |
\*---------------------------------------------------------------------------*/
FoamFile
{
    version     2.0;
    format      ascii;
    class       volScalarField;
    location    "102.518950122557442";
    object      p;
}
// * * * * * * * * * * * * * * * * * * * * * * * * * * * * * * * * * * * * * //

dimensions      [0 2 -2 0 0 0 0];

internalField   nonuniform List<scalar> 
8400
(
-0.698658
-0.703295
-0.700728
-0.693861
-0.685262
-0.677023
-0.670111
-0.665366
-0.66327
-0.664232
-0.668073
-0.673994
-0.680992
-0.688639
-0.696392
-0.703364
-0.708236
-0.709467
-0.705542
-0.69463
-0.675762
-0.64857
-0.613067
-0.569465
-0.518082
-0.45948
-0.394809
-0.32614
-0.256608
-0.189688
-0.126484
-0.0640433
0.00312372
0.06967
0.137651
0.202832
0.266589
0.325366
0.379918
0.427443
0.46809
0.499959
0.522799
0.535737
0.538403
0.53055
0.512236
0.483953
0.445627
0.398858
0.343095
0.281317
0.212262
0.140021
0.0626325
-0.0149948
-0.0953332
-0.172949
-0.250777
-0.322402
-0.394199
-0.470591
-0.550526
-0.629578
-0.703736
-0.770312
-0.827679
-0.874993
-0.911805
-0.937774
-0.952692
-0.956632
-0.950124
-0.934643
-0.911471
-0.882363
-0.84956
-0.815421
-0.782065
-0.751361
-0.724068
-0.700583
-0.680853
-0.664472
-0.650935
-0.639884
-0.631172
-0.624647
-0.620925
-0.619729
-0.621104
-0.625212
-0.632083
-0.64122
-0.650571
-0.658687
-0.666139
-0.675086
-0.688152
-0.707416
-0.733548
-0.765124
-0.79876
-0.830074
-0.854517
-0.86767
-0.865005
-0.842071
-0.801373
-0.7471
-0.687855
-0.632734
-0.589855
-0.565435
-0.561706
-0.576224
-0.603038
-0.635012
-0.664245
-0.686099
-0.74095
-0.742083
-0.734971
-0.723889
-0.708399
-0.691421
-0.676104
-0.663009
-0.657032
-0.655227
-0.656892
-0.661053
-0.666955
-0.674113
-0.68236
-0.691288
-0.6995
-0.70481
-0.704799
-0.697634
-0.68175
-0.656237
-0.620819
-0.575658
-0.521196
-0.458233
-0.388335
-0.314408
-0.240584
-0.170216
-0.105627
-0.0452866
0.018404
0.0814807
0.146128
0.208589
0.269901
0.326842
0.379778
0.426188
0.465949
0.497301
0.519816
0.532651
0.535408
0.527789
0.509917
0.482216
0.444798
0.399081
0.344911
0.284859
0.218283
0.148677
0.0748921
0.0010385
-0.0746083
-0.14759
-0.220732
-0.2898
-0.363552
-0.44437
-0.529701
-0.615613
-0.696741
-0.769036
-0.830268
-0.879327
-0.915567
-0.93858
-0.948377
-0.945612
-0.931528
-0.907565
-0.876112
-0.840013
-0.80232
-0.765879
-0.732861
-0.704438
-0.680933
-0.66202
-0.646983
-0.634751
-0.624532
-0.615869
-0.608763
-0.603611
-0.599898
-0.597972
-0.598273
-0.601514
-0.607425
-0.6161
-0.626668
-0.637789
-0.649527
-0.662841
-0.678644
-0.697797
-0.720635
-0.746587
-0.774008
-0.800303
-0.82168
-0.833683
-0.834066
-0.825125
-0.8045
-0.773002
-0.733012
-0.691041
-0.655175
-0.632021
-0.625166
-0.634326
-0.655453
-0.682458
-0.709061
-0.730469
-0.803024
-0.8061
-0.796514
-0.779654
-0.756613
-0.730339
-0.703676
-0.680098
-0.662579
-0.652359
-0.648845
-0.650019
-0.653989
-0.659983
-0.667767
-0.676733
-0.685678
-0.692573
-0.694789
-0.689764
-0.675391
-0.650215
-0.613559
-0.56549
-0.506717
-0.438622
-0.363547
-0.285075
-0.207581
-0.134832
-0.0724411
-0.0158538
0.0427275
0.101257
0.160936
0.219376
0.276687
0.330599
0.380739
0.425162
0.463262
0.493573
0.51538
0.527944
0.530794
0.523611
0.506605
0.480063
0.444405
0.400688
0.34943
0.292464
0.230173
0.164881
0.0967824
0.0284011
-0.0405156
-0.107472
-0.173952
-0.238172
-0.309279
-0.393054
-0.483223
-0.575122
-0.662966
-0.741834
-0.808521
-0.861158
-0.89867
-0.920588
-0.927218
-0.919746
-0.900134
-0.871082
-0.836074
-0.798785
-0.76255
-0.729885
-0.702175
-0.679609
-0.661532
-0.646826
-0.634294
-0.623031
-0.612601
-0.603055
-0.594711
-0.587696
-0.581788
-0.576903
-0.574768
-0.575597
-0.579111
-0.585578
-0.595676
-0.610784
-0.631924
-0.659022
-0.6908
-0.725117
-0.76007
-0.794113
-0.825991
-0.854374
-0.877497
-0.893142
-0.898605
-0.891276
-0.875225
-0.849651
-0.81716
-0.781546
-0.748177
-0.722703
-0.709717
-0.711097
-0.725086
-0.746912
-0.770771
-0.791326
-0.788308
-0.806001
-0.811804
-0.810115
-0.796474
-0.773017
-0.74362
-0.712097
-0.683309
-0.66112
-0.647412
-0.641602
-0.64155
-0.645331
-0.651623
-0.659468
-0.667667
-0.674361
-0.676963
-0.672556
-0.65844
-0.632606
-0.594066
-0.542962
-0.480477
-0.408741
-0.330804
-0.250558
-0.172345
-0.100186
-0.0411618
0.0114488
0.0651965
0.119475
0.174543
0.229071
0.282465
0.333249
0.380458
0.42271
0.458953
0.488068
0.509039
0.521284
0.524201
0.517546
0.501561
0.476373
0.442714
0.401255
0.353137
0.299502
0.241517
0.180634
0.117884
0.0547676
-0.00812062
-0.0695335
-0.129911
-0.189087
-0.256163
-0.339217
-0.430306
-0.524312
-0.615415
-0.698382
-0.769191
-0.825038
-0.864169
-0.885883
-0.890696
-0.880401
-0.85786
-0.826888
-0.791839
-0.756787
-0.724833
-0.697682
-0.675778
-0.658421
-0.644407
-0.632352
-0.621231
-0.610372
-0.599603
-0.588892
-0.578427
-0.568491
-0.559666
-0.55181
-0.556433
-0.567937
-0.583546
-0.600609
-0.619732
-0.642123
-0.668514
-0.699222
-0.734006
-0.771905
-0.811459
-0.851075
-0.889166
-0.924096
-0.954072
-0.97678
-0.989335
-0.989731
-0.976049
-0.951709
-0.917864
-0.877103
-0.834081
-0.794335
-0.763087
-0.743574
-0.736196
-0.7392
-0.750404
-0.76798
-0.668966
-0.70665
-0.73956
-0.765422
-0.779789
-0.781364
-0.76709
-0.741413
-0.710657
-0.680583
-0.656196
-0.640202
-0.632547
-0.631215
-0.63417
-0.639681
-0.646136
-0.651623
-0.653593
-0.648948
-0.634572
-0.608023
-0.568085
-0.514997
-0.450358
-0.376867
-0.298015
-0.217813
-0.140607
-0.0705338
-0.015037
0.033583
0.0830922
0.133433
0.184501
0.235429
0.28535
0.333198
0.377724
0.417879
0.452363
0.480293
0.500453
0.512371
0.515364
0.509224
0.494223
0.470376
0.438604
0.399361
0.354145
0.303696
0.249572
0.19279
0.134701
0.0763726
0.018627
-0.0377265
-0.0928356
-0.147061
-0.209946
-0.290433
-0.380253
-0.47402
-0.565818
-0.650303
-0.72296
-0.780272
-0.819908
-0.840974
-0.844231
-0.83215
-0.808381
-0.777608
-0.744627
-0.71337
-0.686311
-0.664294
-0.647079
-0.633456
-0.62225
-0.612193
-0.602882
-0.59394
-0.586021
-0.579301
-0.575225
-0.574231
-0.578809
-0.587253
-0.601806
-0.610659
-0.619867
-0.635618
-0.660253
-0.692095
-0.728314
-0.767191
-0.808075
-0.850437
-0.89351
-0.93625
-0.977322
-1.01506
-1.04732
-1.07136
-1.08459
-1.08498
-1.07078
-1.04333
-1.00281
-0.951716
-0.893356
-0.833086
-0.77643
-0.726766
-0.685302
-0.65408
-0.637868
-0.64269
-0.469365
-0.512919
-0.569368
-0.627156
-0.676985
-0.713676
-0.733025
-0.73409
-0.719096
-0.694051
-0.666691
-0.643232
-0.627362
-0.619161
-0.616977
-0.618835
-0.622668
-0.626323
-0.627152
-0.62191
-0.607215
-0.580308
-0.539762
-0.48583
-0.420359
-0.346412
-0.267756
-0.188537
-0.113199
-0.0457524
0.00636557
0.0511635
0.0968482
0.143561
0.191045
0.238678
0.285475
0.330598
0.372683
0.41085
0.443701
0.470484
0.489881
0.501473
0.504535
0.498878
0.484781
0.462212
0.432166
0.395042
0.352469
0.305
0.254354
0.201326
0.147402
0.0933845
0.0402077
-0.011563
-0.0619528
-0.111502
-0.170399
-0.247678
-0.335139
-0.427498
-0.518645
-0.603046
-0.675856
-0.733098
-0.772075
-0.791879
-0.793623
-0.780417
-0.756475
-0.727137
-0.697089
-0.669872
-0.646983
-0.628675
-0.614344
-0.602689
-0.592897
-0.584044
-0.57653
-0.5702
-0.566724
-0.566038
-0.570604
-0.579414
-0.595196
-0.613938
-0.638934
-0.661099
-0.684114
-0.711098
-0.74158
-0.774264
-0.809075
-0.846815
-0.88791
-0.931703
-0.976622
-1.02071
-1.0619
-1.09815
-1.12784
-1.14732
-1.15478
-1.1486
-1.12755
-1.09084
-1.04051
-0.97745
-0.903174
-0.8217
-0.739395
-0.661103
-0.589515
-0.526235
-0.476796
-0.454495
-0.260014
-0.286599
-0.340976
-0.41445
-0.492995
-0.565237
-0.623141
-0.660958
-0.677159
-0.674791
-0.659546
-0.639041
-0.620494
-0.607386
-0.600235
-0.598009
-0.598759
-0.600251
-0.599712
-0.593765
-0.578833
-0.551913
-0.511361
-0.457365
-0.391894
-0.318248
-0.240423
-0.162755
-0.089756
-0.0251617
0.0237111
0.0650007
0.107193
0.150577
0.194795
0.23939
0.28333
0.325911
0.365747
0.40203
0.43335
0.459016
0.477686
0.48895
0.492068
0.486862
0.473595
0.452239
0.423788
0.388686
0.348545
0.303862
0.256389
0.206815
0.156661
0.106554
0.0574992
0.00986196
-0.0362574
-0.0815721
-0.136654
-0.210453
-0.294966
-0.385213
-0.474953
-0.558387
-0.630371
-0.686629
-0.724267
-0.742539
-0.742985
-0.729263
-0.705726
-0.678601
-0.651811
-0.627749
-0.607741
-0.59163
-0.578619
-0.567626
-0.558186
-0.549945
-0.543672
-0.539497
-0.539281
-0.542188
-0.549856
-0.56014
-0.574712
-0.590135
-0.611846
-0.637983
-0.668447
-0.70369
-0.742645
-0.783692
-0.825783
-0.868512
-0.911562
-0.954323
-0.995818
-1.03472
-1.06937
-1.09789
-1.11836
-1.12878
-1.1273
-1.11254
-1.08375
-1.04085
-0.984447
-0.915114
-0.835098
-0.737391
-0.645305
-0.555944
-0.471011
-0.389401
-0.315564
-0.266423
-0.0990334
-0.101926
-0.131251
-0.190307
-0.272748
-0.364143
-0.451265
-0.524634
-0.577646
-0.608131
-0.618462
-0.614335
-0.6031
-0.591177
-0.582004
-0.57692
-0.575003
-0.574439
-0.572549
-0.565916
-0.550836
-0.524115
-0.483905
-0.43029
-0.365296
-0.292399
-0.215825
-0.140106
-0.069754
-0.00813967
0.0376098
0.0756951
0.114709
0.155036
0.196261
0.238037
0.27934
0.319539
0.357282
0.391776
0.421649
0.446227
0.464192
0.475125
0.478283
0.473494
0.460995
0.440789
0.413833
0.380655
0.342771
0.300692
0.256139
0.209755
0.163035
0.116496
0.0711627
0.0272639
-0.0150185
-0.0565161
-0.107942
-0.178102
-0.259278
-0.346913
-0.434743
-0.516693
-0.587335
-0.642164
-0.678222
-0.69497
-0.694291
-0.679944
-0.658171
-0.633309
-0.609093
-0.587606
-0.569541
-0.554593
-0.541936
-0.530949
-0.521385
-0.513438
-0.507666
-0.504445
-0.503817
-0.505443
-0.509123
-0.513374
-0.518435
-0.523393
-0.533652
-0.552887
-0.580081
-0.613212
-0.649927
-0.688345
-0.727387
-0.766523
-0.805308
-0.843036
-0.878714
-0.911037
-0.938457
-0.959312
-0.971948
-0.974841
-0.966533
-0.94583
-0.912208
-0.86589
-0.807816
-0.740007
-0.665541
-0.588566
-0.506663
-0.423522
-0.341607
-0.256868
-0.182219
-0.120804
-0.00169869
0.0115321
0.00947516
-0.0174725
-0.0768427
-0.162054
-0.258452
-0.352822
-0.435629
-0.499168
-0.540269
-0.561035
-0.566871
-0.565297
-0.559159
-0.554126
-0.551046
-0.549111
-0.546151
-0.538961
-0.52383
-0.497429
-0.457746
-0.404762
-0.340534
-0.268692
-0.193681
-0.120208
-0.0527025
0.00587329
0.0486272
0.0837748
0.119889
0.157402
0.195871
0.235024
0.273869
0.311827
0.347602
0.380399
0.408891
0.432413
0.449687
0.460285
0.463464
0.459057
0.447277
0.428159
0.40262
0.371265
0.33549
0.295847
0.254
0.210571
0.166998
0.123726
0.0817656
0.0412537
0.00242466
-0.0356181
-0.083559
-0.150008
-0.227593
-0.312242
-0.397789
-0.477913
-0.546934
-0.600136
-0.63462
-0.650012
-0.648568
-0.634792
-0.614305
-0.591364
-0.569224
-0.549581
-0.532725
-0.51831
-0.505597
-0.494323
-0.484326
-0.475979
-0.469384
-0.464597
-0.461125
-0.458361
-0.4554
-0.451397
-0.446436
-0.44121
-0.441098
-0.451986
-0.472932
-0.500115
-0.530025
-0.560641
-0.591203
-0.621611
-0.651802
-0.681339
-0.709414
-0.734801
-0.75603
-0.771462
-0.779626
-0.77911
-0.76888
-0.748367
-0.717693
-0.677504
-0.628414
-0.57129
-0.506915
-0.436723
-0.362788
-0.28836
-0.216425
-0.145121
-0.0765698
-0.0136205
0.0408954
0.0629462
0.078203
0.0807515
0.0566829
-0.00106779
-0.0857505
-0.18241
-0.279383
-0.36669
-0.435572
-0.482962
-0.510539
-0.522916
-0.527657
-0.527347
-0.525756
-0.523818
-0.520438
-0.512975
-0.497933
-0.471956
-0.432921
-0.380735
-0.317479
-0.246929
-0.173734
-0.102724
-0.0381793
0.0173538
0.0572444
0.0896933
0.123151
0.158069
0.19399
0.230692
0.267236
0.303075
0.336985
0.368166
0.395335
0.417834
0.434427
0.444685
0.447866
0.443807
0.432704
0.414615
0.390427
0.360797
0.327002
0.289643
0.250319
0.209637
0.16896
0.128685
0.0897918
0.0523578
0.016646
-0.0182653
-0.0628938
-0.125629
-0.199478
-0.280878
-0.36385
-0.441901
-0.509123
-0.560624
-0.593619
-0.607864
-0.605963
-0.592843
-0.573613
-0.552361
-0.531899
-0.513528
-0.497349
-0.483012
-0.469926
-0.458002
-0.447044
-0.437338
-0.428561
-0.420597
-0.412582
-0.404001
-0.394038
-0.382591
-0.37015
-0.358439
-0.352772
-0.358746
-0.375423
-0.398089
-0.422833
-0.4478
-0.472522
-0.497159
-0.52182
-0.546182
-0.56945
-0.590516
-0.608146
-0.621032
-0.628051
-0.628186
-0.620722
-0.604781
-0.579819
-0.545428
-0.501954
-0.450166
-0.391923
-0.329478
-0.265002
-0.200752
-0.138502
-0.0804445
-0.0289433
0.0141135
0.00251835
0.0391636
0.0759959
0.10789
0.117792
0.0978828
0.0417932
-0.0404664
-0.135122
-0.231713
-0.319237
-0.389194
-0.43891
-0.469827
-0.486941
-0.494907
-0.497747
-0.497702
-0.494954
-0.487736
-0.473025
-0.447609
-0.409339
-0.358089
-0.295981
-0.226925
-0.15575
-0.0873569
-0.0258207
0.0267082
0.0638708
0.093835
0.124852
0.157368
0.190927
0.225336
0.259713
0.293541
0.325674
0.35531
0.381207
0.402713
0.418636
0.428546
0.431712
0.427971
0.417508
0.400396
0.377497
0.349498
0.317568
0.282358
0.245396
0.207271
0.169269
0.13175
0.0956587
0.061031
0.0281403
-0.00392591
-0.0454185
-0.104494
-0.174544
-0.252526
-0.332699
-0.408496
-0.473784
-0.523566
-0.555143
-0.568445
-0.56634
-0.553829
-0.535749
-0.515888
-0.496664
-0.479056
-0.4631
-0.448431
-0.434624
-0.421562
-0.408982
-0.396968
-0.384963
-0.372835
-0.359741
-0.345589
-0.329985
-0.313532
-0.297133
-0.283048
-0.27612
-0.280813
-0.295934
-0.316604
-0.339043
-0.361679
-0.384407
-0.407627
-0.431531
-0.455994
-0.480366
-0.503404
-0.523484
-0.539166
-0.549198
-0.55241
-0.547766
-0.534317
-0.511663
-0.480084
-0.440919
-0.395718
-0.346724
-0.29551
-0.243776
-0.192764
-0.144596
-0.100904
-0.0615474
-0.0279011
-0.0568442
-0.0183949
0.0227228
0.0653923
0.110431
0.132648
0.113959
0.0593524
-0.0196602
-0.111287
-0.204969
-0.289405
-0.357097
-0.405912
-0.4377
-0.456318
-0.466006
-0.469864
-0.469081
-0.462874
-0.448875
-0.424225
-0.386863
-0.33669
-0.275889
-0.208503
-0.139517
-0.0738404
-0.0153118
0.0342821
0.0688529
0.0965246
0.125293
0.15558
0.186941
0.219201
0.251536
0.283451
0.313882
0.342034
0.366703
0.387246
0.402509
0.412066
0.415199
0.411749
0.401891
0.385709
0.36404
0.337584
0.307418
0.274233
0.23949
0.203752
0.168225
0.133247
0.0997265
0.0676636
0.037334
0.00785846
-0.0306765
-0.086184
-0.152442
-0.226907
-0.304124
-0.377523
-0.440779
-0.488844
-0.519045
-0.53154
-0.529348
-0.517412
-0.5003
-0.481494
-0.463057
-0.445755
-0.429595
-0.414208
-0.399275
-0.384546
-0.36975
-0.354751
-0.339035
-0.322617
-0.304981
-0.286612
-0.267515
-0.248852
-0.231558
-0.217898
-0.211792
-0.216875
-0.231915
-0.252545
-0.275658
-0.299959
-0.325171
-0.351486
-0.378908
-0.40701
-0.434923
-0.461654
-0.485947
-0.50662
-0.522208
-0.531482
-0.533103
-0.526271
-0.510778
-0.487425
-0.457567
-0.422332
-0.38271
-0.339467
-0.294219
-0.249355
-0.206298
-0.165557
-0.127151
-0.0899867
-0.0786481
-0.0400675
0.000689186
0.044092
0.0885195
0.135722
0.148002
0.121691
0.0638496
-0.0142049
-0.103091
-0.192433
-0.271854
-0.335344
-0.381467
-0.411946
-0.430217
-0.439668
-0.44225
-0.437997
-0.425227
-0.401625
-0.365352
-0.316404
-0.257062
-0.191504
-0.124841
-0.0619387
-0.00638045
0.0403699
0.0724841
0.0980363
0.124726
0.152939
0.18225
0.212494
0.2429
0.272994
0.301792
0.328514
0.351993
0.371602
0.386216
0.395416
0.398501
0.395316
0.386032
0.370734
0.35024
0.325246
0.296748
0.26548
0.232824
0.199314
0.166084
0.133459
0.102304
0.0725909
0.0445947
0.0174824
-0.0182741
-0.0703341
-0.132856
-0.203765
-0.27792
-0.348812
-0.409961
-0.45631
-0.485195
-0.496841
-0.494677
-0.483235
-0.466875
-0.448769
-0.43069
-0.413284
-0.396513
-0.380037
-0.36356
-0.346752
-0.329375
-0.31117
-0.291914
-0.271817
-0.250872
-0.230027
-0.209505
-0.19073
-0.174258
-0.162349
-0.158131
-0.164928
-0.181546
-0.203734
-0.228536
-0.25507
-0.283511
-0.314365
-0.348032
-0.384242
-0.42152
-0.457786
-0.491402
-0.521666
-0.54742
-0.566975
-0.578076
-0.579598
-0.571061
-0.553401
-0.5274
-0.493991
-0.453879
-0.408072
-0.359419
-0.309018
-0.2604
-0.211806
-0.165117
-0.118586
-0.0798723
-0.0309748
0.0154398
0.0558051
0.092394
0.131176
0.161025
0.158187
0.121148
0.059374
-0.0185417
-0.104653
-0.188907
-0.262538
-0.320848
-0.362951
-0.390675
-0.406949
-0.414093
-0.41276
-0.40183
-0.379629
-0.344667
-0.297108
-0.239371
-0.175781
-0.111545
-0.0514433
0.00120783
0.0452214
0.0750128
0.098601
0.123365
0.149646
0.177039
0.205386
0.233971
0.262331
0.289561
0.314903
0.337228
0.355926
0.369902
0.378742
0.381767
0.378825
0.370084
0.355627
0.336253
0.312647
0.285732
0.256279
0.225589
0.194162
0.163067
0.132627
0.103655
0.0761017
0.0502388
0.0252822
-0.00787295
-0.0566222
-0.115501
-0.182857
-0.253896
-0.322196
-0.381183
-0.425828
-0.453446
-0.464326
-0.46208
-0.450998
-0.435146
-0.41738
-0.39927
-0.381381
-0.363631
-0.345723
-0.327369
-0.308284
-0.288269
-0.267136
-0.245032
-0.222314
-0.199503
-0.177676
-0.157167
-0.139384
-0.124254
-0.113968
-0.110538
-0.118098
-0.135851
-0.160816
-0.190529
-0.223623
-0.260661
-0.303046
-0.350474
-0.400348
-0.450109
-0.49918
-0.548045
-0.595348
-0.637776
-0.67162
-0.694235
-0.704254
-0.70137
-0.686004
-0.658251
-0.619062
-0.569417
-0.512271
-0.449601
-0.384992
-0.319136
-0.253515
-0.192964
-0.129302
-0.151665
-0.0668597
0.00198662
0.0541164
0.0933667
0.130071
0.160607
0.174303
0.157177
0.112669
0.0482144
-0.029567
-0.112627
-0.191426
-0.258738
-0.311063
-0.348181
-0.371929
-0.384473
-0.386914
-0.378488
-0.358084
-0.324685
-0.278689
-0.222701
-0.161202
-0.0994717
-0.042171
0.00765418
0.0490472
0.0766483
0.0984135
0.121387
0.145865
0.171462
0.198022
0.224884
0.251594
0.277319
0.30133
0.322532
0.340341
0.353691
0.362172
0.365124
0.362405
0.354178
0.340522
0.322217
0.299926
0.274516
0.246786
0.217947
0.188467
0.159366
0.130959
0.104008
0.0784448
0.0545341
0.0315418
0.000818115
-0.044768
-0.10012
-0.163963
-0.231869
-0.297509
-0.35431
-0.397231
-0.423627
-0.433728
-0.431335
-0.42045
-0.404833
-0.387061
-0.368585
-0.34988
-0.330831
-0.311219
-0.290837
-0.2695
-0.247092
-0.223701
-0.19971
-0.175595
-0.152199
-0.130384
-0.110648
-0.0940766
-0.0799371
-0.0705553
-0.0666287
-0.0774204
-0.102475
-0.135769
-0.173709
-0.217013
-0.26721
-0.323336
-0.382949
-0.444726
-0.509171
-0.576607
-0.645064
-0.710491
-0.769044
-0.817183
-0.852408
-0.872826
-0.877727
-0.866131
-0.83887
-0.79625
-0.740243
-0.67377
-0.600213
-0.523436
-0.444816
-0.370337
-0.295229
-0.233378
-0.287505
-0.186662
-0.0863806
-0.0112236
0.0574336
0.104438
0.141091
0.166849
0.17042
0.145809
0.0973667
0.0310916
-0.0460137
-0.125237
-0.197888
-0.258213
-0.303858
-0.335112
-0.353511
-0.360336
-0.355046
-0.336859
-0.305299
-0.261052
-0.206949
-0.147648
-0.0884812
-0.0339614
0.0131302
0.0520236
0.0775651
0.0976372
0.118943
0.141735
0.165647
0.190522
0.215753
0.240891
0.265175
0.287902
0.308012
0.324953
0.337689
0.34581
0.348681
0.346166
0.338425
0.325531
0.308245
0.287204
0.263225
0.237129
0.210034
0.182379
0.155142
0.128633
0.103556
0.0798305
0.0577047
0.036502
0.00804968
-0.0345258
-0.0864812
-0.146885
-0.211661
-0.27461
-0.3292
-0.370332
-0.395617
-0.404852
-0.402228
-0.391357
-0.375701
-0.357628
-0.338512
-0.318699
-0.298108
-0.276674
-0.254297
-0.230895
-0.206607
-0.181827
-0.156984
-0.13263
-0.109539
-0.0884366
-0.0701154
-0.054955
-0.0426369
-0.0358409
-0.0346504
-0.0527496
-0.082768
-0.119198
-0.163096
-0.21581
-0.275736
-0.339802
-0.405998
-0.474109
-0.54492
-0.618655
-0.693751
-0.766605
-0.832857
-0.888477
-0.930726
-0.958067
-0.969943
-0.959031
-0.937602
-0.900593
-0.850203
-0.788663
-0.719361
-0.645721
-0.571175
-0.50179
-0.437072
-0.391324
-0.363365
-0.292326
-0.203516
-0.129591
-0.0177413
0.0396872
0.0925281
0.133632
0.157705
0.15584
0.127235
0.0760597
0.0087443
-0.0664896
-0.140706
-0.206321
-0.258994
-0.297265
-0.321617
-0.332811
-0.331374
-0.315866
-0.286423
-0.24411
-0.192025
-0.135014
-0.0784492
-0.0266751
0.0177817
0.0542969
0.0779068
0.0964084
0.116156
0.137368
0.1597
0.182987
0.206672
0.230314
0.253215
0.274706
0.293759
0.309851
0.321983
0.329748
0.33253
0.330202
0.32292
0.310751
0.294436
0.274581
0.251966
0.227421
0.201966
0.176023
0.150535
0.1258
0.102466
0.0804337
0.0599377
0.0403693
0.0140404
-0.0256793
-0.0743832
-0.131437
-0.193113
-0.25336
-0.305703
-0.344967
-0.368424
-0.377512
-0.374568
-0.363538
-0.347581
-0.32898
-0.308993
-0.287826
-0.265596
-0.242401
-0.218158
-0.193035
-0.167576
-0.142286
-0.117522
-0.0938672
-0.0720635
-0.0527113
-0.0361739
-0.0230967
-0.0147956
-0.0126079
-0.0149201
-0.0354594
-0.0637442
-0.0989236
-0.142195
-0.193581
-0.250407
-0.309623
-0.370514
-0.433305
-0.498157
-0.564428
-0.630202
-0.692729
-0.748849
-0.795952
-0.831993
-0.855566
-0.865645
-0.861822
-0.844861
-0.815986
-0.77693
-0.729299
-0.674174
-0.61326
-0.550875
-0.495311
-0.453765
-0.420392
-0.307467
-0.291827
-0.256943
-0.19938
-0.11962
-0.0449916
0.0235535
0.0790381
0.12297
0.14344
0.136653
0.103926
0.0501653
-0.0172516
-0.0892203
-0.157157
-0.214901
-0.259238
-0.289323
-0.30532
-0.307568
-0.295068
-0.267994
-0.227795
-0.177851
-0.123207
-0.0692664
-0.0201913
0.0217324
0.055988
0.0777904
0.0948383
0.113132
0.13286
0.153707
0.175496
0.197717
0.219934
0.241511
0.261815
0.279843
0.295107
0.306647
0.314057
0.316745
0.314588
0.307739
0.296259
0.280868
0.262142
0.240826
0.217751
0.193841
0.169507
0.145662
0.122591
0.100874
0.0803981
0.0613927
0.0433253
0.0189819
-0.0180409
-0.0636427
-0.117457
-0.176078
-0.233624
-0.283721
-0.321137
-0.343394
-0.351621
-0.348235
-0.336847
-0.320361
-0.30108
-0.279993
-0.257341
-0.233585
-0.208756
-0.182856
-0.156597
-0.13073
-0.105565
-0.0816218
-0.0597534
-0.0403287
-0.0236268
-0.0106057
-0.00227305
0.00197473
0.0027867
-0.000407903
-0.0174473
-0.037947
-0.0654502
-0.0994903
-0.140244
-0.186846
-0.23756
-0.290614
-0.34482
-0.399095
-0.452254
-0.502699
-0.54864
-0.588229
-0.619862
-0.642407
-0.655267
-0.658149
-0.651218
-0.635287
-0.611806
-0.582351
-0.5478
-0.508291
-0.463245
-0.41386
-0.366095
-0.331471
-0.316119
-0.208244
-0.219369
-0.219032
-0.202326
-0.16215
-0.10434
-0.0407456
0.0210774
0.0755169
0.114063
0.127779
0.11472
0.0773041
0.0212809
-0.0449766
-0.112209
-0.172809
-0.221848
-0.257071
-0.277757
-0.283804
-0.274464
-0.249978
-0.212054
-0.164362
-0.112148
-0.0608376
-0.0144058
0.0250875
0.057198
0.0773108
0.0930165
0.109955
0.128289
0.147736
0.168113
0.188949
0.209811
0.230119
0.249284
0.266323
0.280779
0.291739
0.298799
0.301387
0.299387
0.292947
0.28212
0.267609
0.249957
0.229879
0.208194
0.185739
0.162921
0.140625
0.11911
0.0988905
0.0798441
0.0622098
0.0455294
0.0230387
-0.011445
-0.0540998
-0.104799
-0.160416
-0.215292
-0.263154
-0.298727
-0.319687
-0.327025
-0.323109
-0.311144
-0.294005
-0.273898
-0.251509
-0.227484
-0.202398
-0.176031
-0.148969
-0.122377
-0.0965758
-0.0719774
-0.0498271
-0.0308059
-0.014717
-0.00211159
0.00658136
0.0127691
0.0162745
0.0143997
0.0107875
0.000194724
-0.0148996
-0.0362248
-0.06335
-0.0961612
-0.133793
-0.175109
-0.218633
-0.262659
-0.305544
-0.345765
-0.381767
-0.412325
-0.436283
-0.453047
-0.462333
-0.46415
-0.459161
-0.44816
-0.432333
-0.412502
-0.389781
-0.364885
-0.337602
-0.306818
-0.271954
-0.234909
-0.203754
-0.193593
-0.13312
-0.152036
-0.166555
-0.168311
-0.156307
-0.124933
-0.0801577
-0.0259336
0.0286796
0.0762693
0.105599
0.110808
0.0905216
0.0483259
-0.00911974
-0.0726837
-0.1338
-0.185936
-0.225408
-0.250436
-0.260224
-0.254115
-0.232371
-0.196853
-0.151506
-0.101768
-0.0530802
-0.00922916
0.0279367
0.0580124
0.0765464
0.0910145
0.106695
0.12372
0.141847
0.16089
0.180416
0.19999
0.219084
0.237156
0.253243
0.266914
0.277306
0.28402
0.286505
0.284649
0.278592
0.268386
0.254713
0.238081
0.219182
0.198813
0.177728
0.15634
0.135504
0.115444
0.0966058
0.0788762
0.0625127
0.0471186
0.0263506
-0.00574847
-0.0456158
-0.0933214
-0.14601
-0.198265
-0.243871
-0.277607
-0.297246
-0.303667
-0.299053
-0.286366
-0.268519
-0.247379
-0.223684
-0.198573
-0.172215
-0.144632
-0.117307
-0.0909373
-0.0654457
-0.0422645
-0.0228647
-0.00703631
0.00613176
0.0163913
0.0241296
0.0243371
0.0183503
0.00375881
0.00085719
0.00030876
-0.0114334
-0.0303352
-0.0559464
-0.0869482
-0.120997
-0.156755
-0.191927
-0.225846
-0.256737
-0.28382
-0.305851
-0.322114
-0.332451
-0.336836
-0.335798
-0.329874
-0.319436
-0.305163
-0.288061
-0.269714
-0.250967
-0.232208
-0.213502
-0.1937
-0.171096
-0.146369
-0.125132
-0.119073
-0.0794015
-0.0973367
-0.115848
-0.127968
-0.130586
-0.119202
-0.0944779
-0.0556802
-0.00906612
0.0385434
0.0764592
0.09612
0.0917322
0.0642043
0.0178057
-0.0394444
-0.09872
-0.152272
-0.194887
-0.223681
-0.237017
-0.234115
-0.21519
-0.182175
-0.13924
-0.0920099
-0.0459234
-0.00458376
0.0303565
0.0585048
0.0755638
0.0888894
0.103403
0.119202
0.136085
0.153867
0.172155
0.190507
0.20844
0.225463
0.240636
0.253547
0.263384
0.269756
0.272135
0.270411
0.264716
0.255098
0.242221
0.226561
0.208782
0.189656
0.169864
0.149828
0.130367
0.11166
0.0940961
0.0775873
0.0624093
0.0482076
0.0290348
-0.000830225
-0.0380641
-0.082904
-0.132761
-0.182429
-0.225755
-0.257718
-0.276017
-0.281429
-0.275976
-0.262525
-0.243854
-0.221547
-0.196807
-0.17077
-0.14324
-0.115292
-0.0885071
-0.0625266
-0.038194
-0.0178787
-0.00155335
0.0119482
0.0216084
0.0245701
0.0137529
-0.0110629
-0.0350398
-0.0505838
-0.0357704
-0.0385811
-0.050359
-0.0694458
-0.0951503
-0.124665
-0.156142
-0.186334
-0.214585
-0.238834
-0.259172
-0.27365
-0.282128
-0.28429
-0.280581
-0.271999
-0.259421
-0.244214
-0.227767
-0.210635
-0.193137
-0.175592
-0.159266
-0.144187
-0.129629
-0.115147
-0.100616
-0.0855921
-0.0721996
-0.0685602
-0.040943
-0.0552639
-0.0729178
-0.0885878
-0.0993482
-0.100654
-0.090175
-0.0680122
-0.0337022
0.00733589
0.0466256
0.0751707
0.0839628
0.0702917
0.0359467
-0.0129723
-0.068209
-0.121446
-0.166003
-0.197843
-0.214369
-0.214574
-0.198469
-0.168016
-0.127533
-0.0828245
-0.0393079
-0.000402952
0.0324118
0.0587377
0.0744198
0.0866873
0.100119
0.114775
0.130485
0.147074
0.164191
0.181387
0.198211
0.214229
0.228525
0.240702
0.249998
0.256036
0.258307
0.256702
0.251347
0.242287
0.230166
0.21543
0.198715
0.180764
0.162192
0.143434
0.125266
0.107813
0.0914277
0.0760592
0.0619902
0.0488894
0.0311879
0.00341457
-0.0313327
-0.0734402
-0.120565
-0.167688
-0.208743
-0.23897
-0.255879
-0.260207
-0.253867
-0.239608
-0.219967
-0.196594
-0.171079
-0.144145
-0.116024
-0.0887114
-0.0626871
-0.0376924
-0.0166285
-0.00109882
0.0109326
0.0174108
0.0111405
-0.0141103
-0.0522722
-0.0788736
-0.100008
-0.126556
-0.131009
-0.143906
-0.157825
-0.177285
-0.203375
-0.230884
-0.257646
-0.279854
-0.297546
-0.310514
-0.317263
-0.317055
-0.308961
-0.293601
-0.273014
-0.248788
-0.223437
-0.19754
-0.172647
-0.149536
-0.128786
-0.110111
-0.0940483
-0.081852
-0.0725952
-0.0633706
-0.0525263
-0.0417586
-0.0337535
-0.0326335
-0.0149305
-0.0252413
-0.0394549
-0.0545885
-0.0685342
-0.0774308
-0.0777295
-0.0675503
-0.0459712
-0.0144048
0.0209526
0.0524327
0.0704819
0.0687628
0.046188
0.0066888
-0.0426871
-0.0937863
-0.139108
-0.173237
-0.19249
-0.195614
-0.182258
-0.154381
-0.116367
-0.0741684
-0.0331824
0.00336896
0.0341579
0.0587628
0.073161
0.0844461
0.0968746
0.110467
0.125076
0.140535
0.156544
0.172646
0.188415
0.20347
0.216926
0.228395
0.237166
0.242876
0.245037
0.243542
0.238506
0.229974
0.218573
0.204714
0.189008
0.172166
0.154746
0.137197
0.12024
0.10395
0.0886595
0.0743624
0.0613288
0.0492383
0.0328907
0.00707692
-0.0253244
-0.0648317
-0.109329
-0.153967
-0.192785
-0.221095
-0.236715
-0.239957
-0.23272
-0.217567
-0.19693
-0.172724
-0.146566
-0.119014
-0.091242
-0.0650847
-0.0401708
-0.0183408
-0.00329076
0.00595565
0.00902811
-0.00244977
-0.0316291
-0.0650635
-0.086939
-0.106732
-0.142339
-0.185387
-0.227486
-0.27132
-0.306466
-0.345792
-0.383622
-0.422534
-0.451099
-0.466946
-0.46955
-0.463304
-0.450757
-0.430045
-0.40103
-0.363073
-0.319605
-0.273902
-0.229283
-0.188336
-0.151568
-0.119694
-0.0926402
-0.0703858
-0.0519749
-0.0378181
-0.0290999
-0.0248313
-0.020845
-0.0143604
-0.00826304
-0.00782504
-0.000811818
-0.00659353
-0.015933
-0.027861
-0.0411249
-0.0529446
-0.0598958
-0.0588897
-0.0481822
-0.0268578
0.00192909
0.0316676
0.0544468
0.0619448
0.050023
0.0200633
-0.0223144
-0.0698006
-0.114468
-0.149885
-0.171561
-0.177335
-0.166614
-0.141277
-0.10573
-0.0660087
-0.0275003
0.00677812
0.03564
0.0586228
0.0718254
0.082197
0.0936929
0.106297
0.119875
0.134267
0.149226
0.164296
0.179061
0.193195
0.205846
0.216637
0.2249
0.230288
0.232339
0.230944
0.226207
0.218176
0.207458
0.19443
0.17968
0.163885
0.147555
0.131147
0.115322
0.100109
0.0858428
0.0725548
0.060483
0.0493145
0.0342124
0.0102365
-0.0199536
-0.0569923
-0.0989734
-0.14119
-0.177797
-0.204251
-0.218501
-0.220668
-0.212505
-0.196406
-0.174881
-0.150044
-0.123422
-0.0958822
-0.0692333
-0.044606
-0.0223258
-0.00633558
0.00161086
0.00372605
-0.00534938
-0.0304524
-0.0584499
-0.0764146
-0.0855233
-0.104331
-0.148892
-0.223435
-0.315364
-0.381626
-0.454204
-0.5197
-0.581914
-0.635899
-0.676357
-0.691187
-0.681264
-0.652151
-0.614038
-0.570954
-0.52049
-0.461653
-0.395564
-0.327888
-0.263109
-0.20574
-0.157086
-0.117091
-0.0845265
-0.0585712
-0.0382083
-0.0227562
-0.0121176
-0.00599098
-0.00308531
-0.000550176
0.00277124
0.00359992
0.00538599
0.00325327
-0.00139762
-0.00919534
-0.0192625
-0.0304813
-0.0405878
-0.0453946
-0.0429469
-0.0312532
-0.0102366
0.015261
0.0387027
0.0520145
0.0491079
0.0281411
-0.00683929
-0.0495439
-0.0923969
-0.128134
-0.151728
-0.15982
-0.151589
-0.128724
-0.0956065
-0.0583211
-0.0222217
0.00986498
0.0368945
0.058352
0.0704438
0.0799654
0.0905924
0.102277
0.114893
0.128279
0.142245
0.15634
0.170153
0.183406
0.195288
0.20543
0.213202
0.218278
0.220218
0.218913
0.214457
0.2069
0.196831
0.184591
0.170746
0.155939
0.140638
0.125305
0.110536
0.0963236
0.083021
0.070682
0.0594978
0.049169
0.0352149
0.0129631
-0.015145
-0.0498456
-0.0894247
-0.129278
-0.1637
-0.188351
-0.201222
-0.202326
-0.1932
-0.176174
-0.153931
-0.12866
-0.101928
-0.0751309
-0.0501978
-0.0279309
-0.0102496
-0.00106024
0.00123664
-0.00326308
-0.0219825
-0.0463706
-0.0597221
-0.0640756
-0.0718256
-0.110703
-0.191683
-0.275773
-0.467918
-0.428742