/*--------------------------------*- C++ -*----------------------------------*\
| =========                 |                                                 |
| \\      /  F ield         | OpenFOAM: The Open Source CFD Toolbox           |
|  \\    /   O peration     | Version:  3.0.1                                 |
|   \\  /    A nd           | Web:      www.OpenFOAM.org                      |
|    \\/     M anipulation  |                                                 |
\*---------------------------------------------------------------------------*/
FoamFile
{
    version     2.0;
    format      ascii;
    class       volVectorField;
    location    "102.518950122557442";
    object      U;
}
// * * * * * * * * * * * * * * * * * * * * * * * * * * * * * * * * * * * * * //

dimensions      [0 1 -1 0 0 0 0];

internalField   nonuniform List<vector> 
8400
(
(-0.0605701 0.123302 3.49222e-17)
(-0.0408097 0.129435 2.37651e-17)
(-0.0203078 0.115011 2.25876e-17)
(-0.000775867 0.0864197 2.76224e-17)
(0.014399 0.0490479 5.07783e-17)
(0.0239575 0.0123967 4.55718e-17)
(0.0290391 -0.0134506 1.74719e-17)
(0.0320352 -0.0256715 1.49496e-17)
(0.036428 -0.0261449 1.66702e-17)
(0.0434886 -0.0192761 -8.31553e-19)
(0.0532729 -0.0107893 -9.99257e-18)
(0.0663179 -0.0046797 -2.92552e-18)
(0.0826902 -0.000935053 3.29378e-18)
(0.101408 0.00207728 6.02114e-18)
(0.12154 0.00572588 1.09633e-17)
(0.142169 0.0107952 4.48407e-18)
(0.1626 0.0175909 -1.90205e-18)
(0.182476 0.0262049 -9.70039e-19)
(0.202117 0.0366757 4.20466e-18)
(0.222158 0.0499566 6.43554e-18)
(0.24275 0.0665825 -1.86772e-19)
(0.264216 0.0868334 -1.4683e-18)
(0.286908 0.111206 1.44255e-18)
(0.310747 0.140325 -1.36206e-18)
(0.335032 0.174778 -6.38716e-19)
(0.358192 0.214704 -1.1191e-18)
(0.377668 0.258959 -8.70892e-19)
(0.390624 0.304247 -1.41122e-19)
(0.396085 0.345537 -8.62312e-19)
(0.396102 0.37847 -5.98377e-19)
(0.382638 0.398088 -9.67096e-19)
(0.336216 0.378226 3.48208e-20)
(0.305909 0.375085 -1.14686e-18)
(0.261935 0.355719 -8.6716e-19)
(0.227595 0.339021 -9.12465e-19)
(0.18774 0.313356 -3.8695e-18)
(0.154851 0.287308 -1.99209e-18)
(0.120995 0.255587 -3.45393e-18)
(0.0928316 0.222415 -5.19142e-18)
(0.0666307 0.185724 -3.58833e-18)
(0.0456286 0.147381 -3.09579e-18)
(0.0283529 0.107033 -3.41142e-18)
(0.0160873 0.0655423 -2.54471e-19)
(0.00853245 0.0230673 2.47844e-18)
(0.00593428 -0.0200472 -1.02188e-17)
(0.0083421 -0.0632804 -8.60678e-18)
(0.015679 -0.106311 -1.13451e-17)
(0.0283086 -0.148979 -8.3626e-18)
(0.0452605 -0.190611 7.72615e-20)
(0.0680317 -0.231662 -4.4269e-18)
(0.0936677 -0.26993 -9.86872e-19)
(0.12605 -0.307891 -7.47053e-19)
(0.158694 -0.340543 -3.34894e-19)
(0.199638 -0.374038 1.0954e-19)
(0.236873 -0.398786 1.07362e-18)
(0.284808 -0.426442 2.65948e-18)
(0.32314 -0.44071 6.16254e-19)
(0.376137 -0.462543 2.67934e-18)
(0.409549 -0.461212 -1.59049e-19)
(0.465913 -0.484907 5.28323e-18)
(0.479936 -0.458503 -4.45837e-18)
(0.479725 -0.41859 5.85781e-18)
(0.473561 -0.369022 3.62971e-18)
(0.458739 -0.314418 2.53731e-18)
(0.436001 -0.260981 3.63272e-18)
(0.408833 -0.212998 -6.43332e-18)
(0.38057 -0.171964 -8.01382e-18)
(0.353251 -0.137622 -1.02807e-17)
(0.327724 -0.109097 -4.18245e-18)
(0.304024 -0.0855033 4.71227e-18)
(0.281529 -0.0661803 3.03177e-18)
(0.259248 -0.0508328 -5.0909e-19)
(0.236647 -0.0393492 1.65891e-19)
(0.21229 -0.0309699 1.68009e-18)
(0.184811 -0.0259542 8.13352e-18)
(0.153707 -0.0245721 -9.15695e-18)
(0.119205 -0.0268252 -2.38977e-18)
(0.0821104 -0.0327564 -8.32437e-20)
(0.0444998 -0.0416511 3.55627e-19)
(0.00838061 -0.0518555 -3.83969e-21)
(-0.0251148 -0.0635963 -8.42104e-19)
(-0.0542726 -0.0758066 -8.08499e-18)
(-0.0782949 -0.0872467 -2.51612e-17)
(-0.0975167 -0.0963464 -2.04786e-17)
(-0.11288 -0.10156 -1.65772e-17)
(-0.125367 -0.101782 -2.8141e-17)
(-0.135292 -0.0974162 -4.69679e-17)
(-0.14198 -0.0901028 -6.02785e-17)
(-0.144705 -0.0819044 -4.07975e-17)
(-0.143328 -0.075434 -1.00574e-17)
(-0.136847 -0.0723021 2.32743e-17)
(-0.124352 -0.0668237 1.22284e-17)
(-0.108692 -0.0664779 -1.62016e-17)
(-0.0882816 -0.075081 -2.90128e-17)
(-0.0645347 -0.0967311 -6.02829e-17)
(-0.0420604 -0.134891 -2.04504e-17)
(-0.0249025 -0.190332 -4.02686e-17)
(-0.0105649 -0.261695 5.7774e-18)
(0.0085327 -0.346626 2.15942e-17)
(0.0336108 -0.441664 3.72556e-18)
(0.0579617 -0.541132 1.13141e-17)
(0.0788101 -0.638271 9.5593e-18)
(0.098106 -0.727732 1.54923e-17)
(0.115906 -0.805776 1.72596e-17)
(0.131417 -0.869143 2.2141e-17)
(0.144022 -0.914624 2.30907e-17)
(0.152692 -0.938491 1.75977e-17)
(0.156139 -0.935418 3.81992e-17)
(0.150785 -0.902832 3.89879e-17)
(0.135651 -0.843306 3.44678e-17)
(0.11176 -0.76075 4.76293e-17)
(0.0809593 -0.659306 4.00003e-17)
(0.0462426 -0.544654 4.51706e-17)
(0.0107355 -0.423312 4.11527e-17)
(-0.0217975 -0.302513 5.3937e-17)
(-0.0486493 -0.189216 4.46139e-17)
(-0.0675679 -0.0883327 5.20701e-17)
(-0.0782656 -0.00271543 5.75053e-17)
(-0.0806829 0.0598838 5.92574e-17)
(-0.0741992 0.0986464 5.87441e-17)
(-0.10142 -0.0374765 8.53708e-18)
(-0.0487284 0.0304063 -1.36549e-18)
(-0.00464841 0.073162 2.00819e-17)
(0.0298945 0.101625 5.34884e-17)
(0.0573593 0.10512 4.53216e-17)
(0.0771051 0.0856133 4.34882e-17)
(0.0892996 0.0477466 3.84947e-17)
(0.0964722 0.0059319 4.02242e-17)
(0.106488 -0.0261964 5.28282e-17)
(0.127154 -0.0429319 2.6154e-17)
(0.15843 -0.0442359 7.90888e-18)
(0.196663 -0.0361119 -5.45837e-19)
(0.239659 -0.0244372 3.08888e-18)
(0.286393 -0.0110355 1.15922e-17)
(0.335728 0.00494158 1.03215e-18)
(0.386153 0.0242048 -1.57796e-18)
(0.436387 0.0472309 -7.92885e-18)
(0.485223 0.0745921 -2.1977e-18)
(0.531928 0.106976 7.94718e-18)
(0.577001 0.145611 9.04009e-18)
(0.620764 0.191048 -7.66481e-19)
(0.66304 0.2434 -5.64363e-18)
(0.703038 0.302508 -7.0954e-18)
(0.738581 0.36742 -3.61369e-18)
(0.766159 0.435692 -1.85095e-18)
(0.781939 0.503024 -4.25867e-18)
(0.783523 0.564046 -7.36729e-18)
(0.771502 0.614195 4.98566e-19)
(0.749461 0.651503 -3.0453e-18)
(0.721225 0.676649 -1.61387e-18)
(0.685803 0.688797 -3.19013e-18)
(0.605174 0.660043 -3.21957e-18)
(0.557413 0.654134 -4.67912e-18)
(0.481856 0.6217 -5.63028e-18)
(0.4275 0.595525 -7.21427e-18)
(0.358854 0.553359 -8.78564e-18)
(0.304841 0.509714 -5.39853e-18)
(0.24599 0.456271 -6.72807e-18)
(0.198259 0.398297 -1.48898e-17)
(0.152157 0.334254 -1.08788e-17)
(0.11568 0.265268 -8.36792e-18)
(0.0848905 0.192602 -1.11366e-17)
(0.0631459 0.116454 -1.84451e-18)
(0.0496949 0.0383078 -6.55779e-18)
(0.0451226 -0.0415257 -1.48927e-17)
(0.0495907 -0.12143 -2.3452e-17)
(0.0628404 -0.201157 -3.47054e-17)
(0.0859468 -0.278923 -2.00771e-17)
(0.116101 -0.355073 -7.19117e-18)
(0.157199 -0.427792 -4.14016e-18)
(0.201627 -0.496019 1.5659e-18)
(0.259185 -0.560775 -2.58233e-18)
(0.314066 -0.616772 -2.91847e-19)
(0.385705 -0.671496 2.66315e-18)
(0.445973 -0.711464 3.63304e-19)
(0.528679 -0.755255 4.02586e-18)
(0.588419 -0.775948 1.65876e-18)
(0.678828 -0.810196 6.53408e-18)
(0.731252 -0.809222 2.08333e-18)
(0.826729 -0.839701 8.8579e-18)
(0.866419 -0.820251 4.93488e-18)
(0.899475 -0.786891 6.33018e-18)
(0.926441 -0.740571 4.87809e-18)
(0.943461 -0.680692 7.34351e-18)
(0.946293 -0.60915 3.90535e-18)
(0.9337 -0.530483 9.64994e-18)
(0.90794 -0.450385 -1.40833e-18)
(0.873296 -0.373786 -3.72319e-18)
(0.834012 -0.303643 -1.61202e-18)
(0.792966 -0.24103 -3.73204e-19)
(0.751078 -0.185938 3.88989e-18)
(0.7079 -0.138078 -7.2584e-18)
(0.662401 -0.0975539 6.91129e-18)
(0.612256 -0.0636824 7.28257e-18)
(0.55587 -0.0365829 8.15254e-18)
(0.492765 -0.0166056 -6.33002e-19)
(0.423483 -0.00391452 4.11129e-18)
(0.349715 0.00180223 3.81389e-18)
(0.274246 0.00100085 4.97099e-18)
(0.199959 -0.00469124 8.43156e-18)
(0.129168 -0.0146374 1.53482e-17)
(0.0642786 -0.0270635 1.14688e-17)
(0.00616172 -0.0406692 1.49886e-17)
(-0.0454311 -0.054328 2.83241e-17)
(-0.0904539 -0.0672099 -2.69e-18)
(-0.127436 -0.0799376 -2.62416e-17)
(-0.152847 -0.0943507 -7.58415e-17)
(-0.163522 -0.112257 -5.47684e-17)
(-0.161307 -0.133399 -2.45729e-17)
(-0.154666 -0.156997 -2.22475e-17)
(-0.153016 -0.188458 -2.11373e-17)
(-0.157161 -0.223934 -1.44143e-17)
(-0.151268 -0.278221 -1.98367e-19)
(-0.121114 -0.345664 2.63817e-17)
(-0.0699156 -0.416882 3.08818e-17)
(-0.0141414 -0.483357 3.98989e-17)
(0.035599 -0.545293 4.75266e-17)
(0.076679 -0.605881 2.72956e-17)
(0.106356 -0.665879 2.7494e-17)
(0.123111 -0.724744 1.81694e-17)
(0.130245 -0.782057 3.46636e-17)
(0.132988 -0.836802 5.52133e-17)
(0.134044 -0.887564 4.70089e-17)
(0.13287 -0.932598 5.10973e-17)
(0.127619 -0.969262 3.90921e-17)
(0.115995 -0.993874 6.29052e-17)
(0.0959916 -1.00422 3.53611e-17)
(0.0666261 -1.00344 6.14431e-17)
(0.0272346 -0.992652 4.44947e-17)
(-0.0217019 -0.964881 5.58962e-17)
(-0.0779475 -0.918721 4.24017e-17)
(-0.1366 -0.854465 6.27915e-17)
(-0.191898 -0.774926 4.59974e-17)
(-0.237672 -0.683443 6.05447e-17)
(-0.268497 -0.583294 4.78689e-17)
(-0.28055 -0.478898 5.69658e-17)
(-0.272072 -0.374515 6.84057e-17)
(-0.245174 -0.275002 5.84994e-17)
(-0.20488 -0.185756 4.48463e-17)
(-0.155067 -0.111442 2.38281e-17)
(-0.0398359 -0.290975 2.96093e-17)
(0.0344116 -0.17558 1.68364e-17)
(0.094 -0.108926 -1.51402e-17)
(0.137441 -0.0384622 3.86611e-17)
(0.1691 0.0129262 2.72235e-17)
(0.187271 0.0438301 2.97305e-17)
(0.195998 0.0484642 3.55324e-17)
(0.200261 0.0316009 3.82609e-17)
(0.210301 0.00168148 4.56467e-17)
(0.237829 -0.0258698 5.41078e-17)
(0.286429 -0.0394394 4.0224e-17)
(0.348923 -0.0374944 1.40384e-17)
(0.416357 -0.0248329 -5.56994e-18)
(0.485297 -0.00604696 3.31513e-18)
(0.555154 0.0167538 -8.35392e-18)
(0.624771 0.0434985 -1.81921e-18)
(0.692775 0.075228 -9.92856e-18)
(0.757693 0.113375 6.17986e-18)
(0.818175 0.159209 1.16192e-17)
(0.87349 0.213356 9.0035e-18)
(0.922798 0.275708 9.62679e-18)
(0.964577 0.344961 1.49112e-18)
(0.996425 0.418653 -5.84031e-18)
(1.01512 0.493003 -7.18717e-19)
(1.01768 0.563017 -1.72994e-18)
(1.00284 0.623289 -1.62021e-18)
(0.972121 0.669406 -1.45238e-18)
(0.929649 0.699362 -2.29209e-19)
(0.880644 0.714213 -1.23024e-18)
(0.829472 0.717201 -2.86759e-19)
(0.781453 0.712096 -8.9658e-19)
(0.703056 0.701552 -1.40841e-18)
(0.649428 0.685207 -2.01922e-18)
(0.573622 0.664761 -3.24841e-18)
(0.514392 0.632746 -3.23812e-18)
(0.442739 0.59766 -5.49393e-18)
(0.38391 0.549237 -1.21744e-17)
(0.320233 0.498022 -1.18625e-17)
(0.267872 0.434365 -1.81843e-17)
(0.216604 0.367864 -1.98212e-17)
(0.176143 0.291482 -1.04793e-17)
(0.141281 0.212357 -2.09561e-17)
(0.116802 0.127133 -2.62022e-17)
(0.101573 0.0398911 -1.1553e-17)
(0.0964654 -0.0499392 -2.04289e-17)
(0.101775 -0.139505 -3.84981e-17)
(0.116902 -0.229412 -2.39941e-17)
(0.143778 -0.314977 -1.25502e-17)
(0.177976 -0.400579 2.29276e-18)
(0.224791 -0.477194 4.38601e-18)
(0.274589 -0.55348 6.34662e-18)
(0.338331 -0.61678 6.5362e-18)
(0.399465 -0.679534 6.63088e-18)
(0.475852 -0.726819 5.89301e-18)
(0.54287 -0.773161 4.15883e-18)
(0.627192 -0.803681 8.0992e-18)
(0.693989 -0.832304 4.25575e-18)
(0.782167 -0.847824 1.12933e-17)
(0.842755 -0.859616 1.97193e-18)
(0.93302 -0.865494 1.01636e-17)
(0.988109 -0.865229 2.02657e-18)
(1.04774 -0.85597 8.52972e-18)
(1.10595 -0.83441 7.99913e-18)
(1.15834 -0.797145 1.91633e-17)
(1.19946 -0.742806 1.06974e-17)
(1.2248 -0.673203 1.74195e-17)
(1.23253 -0.592772 1.44224e-18)
(1.22389 -0.507162 3.8044e-19)
(1.20207 -0.421714 3.47215e-18)
(1.17075 -0.340493 -8.80165e-19)
(1.13262 -0.266084 6.09073e-18)
(1.08915 -0.199896 5.02852e-19)
(1.04051 -0.14272 1.65923e-17)
(0.986133 -0.0949582 1.19362e-17)
(0.925463 -0.056804 1.24185e-17)
(0.858685 -0.0280047 1.01752e-17)
(0.786426 -0.00804629 9.51316e-18)
(0.710059 0.00417417 7.97945e-18)
(0.631005 0.00975674 2.01194e-17)
(0.550869 0.00999197 1.82241e-17)
(0.470689 0.00538795 2.02179e-17)
(0.391596 -0.00333601 1.89173e-17)
(0.313693 -0.0158223 1.79099e-17)
(0.236816 -0.0319235 -2.70316e-18)
(0.160799 -0.0516468 -9.03115e-18)
(0.0869356 -0.0746563 -2.38275e-17)
(0.0183954 -0.100661 -4.31861e-17)
(-0.0388494 -0.128178 -2.5664e-17)
(-0.0755916 -0.155871 -1.32597e-17)
(-0.0772873 -0.185636 3.69002e-18)
(-0.0408643 -0.231903 4.75097e-17)
(0.024656 -0.27616 5.17113e-17)
(0.0876649 -0.318859 5.15988e-17)
(0.121522 -0.362506 2.80133e-17)
(0.131128 -0.411856 4.88249e-18)
(0.132653 -0.468546 -2.47354e-17)
(0.141384 -0.530203 -4.81121e-17)
(0.160799 -0.592793 -7.71732e-19)
(0.184 -0.651569 -9.09645e-18)
(0.203545 -0.702938 3.52938e-17)
(0.217398 -0.746352 2.26607e-17)
(0.225738 -0.783267 2.25118e-17)
(0.22743 -0.815377 7.21615e-18)
(0.220592 -0.84423 3.45132e-17)
(0.203594 -0.87034 4.22446e-17)
(0.17447 -0.893272 6.82049e-17)
(0.1314 -0.912229 4.98291e-17)
(0.0745053 -0.925285 6.25679e-17)
(0.0066765 -0.933771 4.96497e-17)
(-0.0699198 -0.938618 5.70354e-17)
(-0.152886 -0.937033 4.69469e-17)
(-0.234752 -0.925234 5.15282e-17)
(-0.307281 -0.90061 4.49239e-17)
(-0.362636 -0.86076 4.91305e-17)
(-0.394515 -0.804989 5.38877e-17)
(-0.396931 -0.733164 5.64979e-17)
(-0.366379 -0.647804 5.92519e-17)
(-0.305138 -0.554105 5.09888e-17)
(-0.222069 -0.460173 4.21214e-17)
(-0.129167 -0.373967 3.55011e-17)
(0.00201996 -0.558443 3.26344e-17)
(0.1069 -0.405789 3.94569e-17)
(0.184491 -0.327083 3.52663e-17)
(0.241158 -0.227657 3.39708e-17)
(0.291693 -0.149412 1.47379e-17)
(0.322904 -0.0790585 4.52793e-18)
(0.337953 -0.0312706 1.56302e-17)
(0.343634 -0.00881032 4.31933e-17)
(0.354207 -0.0083683 2.63738e-17)
(0.384282 -0.0194701 3.39031e-17)
(0.441221 -0.0287096 3.11156e-17)
(0.518875 -0.0275796 2.15556e-17)
(0.603683 -0.0150734 1.86914e-17)
(0.687337 0.00537914 2.77424e-17)
(0.768183 0.031334 1.60542e-17)
(0.84543 0.0623264 1.781e-17)
(0.91813 0.0989927 -2.23958e-18)
(0.985035 0.142779 5.20302e-18)
(1.0446 0.195006 4.91439e-18)
(1.09522 0.255852 6.82777e-18)
(1.13499 0.324089 -5.73808e-18)
(1.16151 0.396998 3.8262e-19)
(1.17219 0.470524 -5.13598e-18)
(1.16492 0.539669 -2.34028e-18)
(1.1392 0.599264 6.75676e-18)
(1.09687 0.644979 -5.55672e-20)
(1.04203 0.674276 -1.21522e-18)
(0.980029 0.687055 -3.30388e-18)
(0.916177 0.685708 -6.35828e-19)
(0.854964 0.674042 -7.76332e-19)
(0.803724 0.658001 1.30456e-18)
(0.734772 0.661449 6.50168e-19)
(0.682097 0.639034 5.40991e-19)
(0.613496 0.62983 -1.47368e-18)
(0.556411 0.5959 1.33097e-18)
(0.489347 0.570147 9.28893e-19)
(0.432567 0.522393 -5.84791e-18)
(0.371172 0.478611 -5.46543e-18)
(0.320195 0.416757 -1.10505e-17)
(0.269662 0.355664 -1.02061e-17)
(0.229924 0.281221 -7.83222e-18)
(0.1951 0.205534 -1.79413e-17)
(0.170761 0.12191 -1.80733e-17)
(0.155549 0.0367151 -1.13249e-17)
(0.15051 -0.051674 -2.54682e-17)
(0.156093 -0.139446 -2.91504e-17)
(0.171333 -0.228055 -8.35265e-18)
(0.198922 -0.310691 5.24799e-18)
(0.233238 -0.394965 -8.17183e-19)
(0.280236 -0.466343 1.08596e-17)
(0.329693 -0.541133 1.02846e-17)
(0.39229 -0.596479 7.78359e-18)
(0.452438 -0.658038 5.56343e-18)
(0.525359 -0.694925 8.18603e-18)
(0.590826 -0.741322 9.02965e-18)
(0.668619 -0.759458 1.03259e-17)
(0.733911 -0.790829 9.12049e-18)
(0.812336 -0.792237 1.15743e-17)
(0.872778 -0.811048 1.09524e-17)
(0.950772 -0.800449 1.26236e-17)
(1.01039 -0.812202 1.14866e-17)
(1.08184 -0.818845 6.63724e-18)
(1.15709 -0.814727 1.44797e-17)
(1.23148 -0.79573 6.23296e-19)
(1.29949 -0.759059 1.71223e-17)
(1.35567 -0.704667 8.43839e-18)
(1.39591 -0.635207 7.8427e-18)
(1.41854 -0.555214 4.61198e-18)
(1.42419 -0.470044 1.02839e-17)
(1.41522 -0.384866 2.04938e-18)
(1.39435 -0.303931 2.07989e-17)
(1.36415 -0.230223 6.49954e-18)
(1.32627 -0.165728 1.32832e-17)
(1.28221 -0.111223 8.58502e-18)
(1.23292 -0.0668434 1.99833e-17)
(1.1797 -0.0315122 7.21081e-18)
(1.1231 -0.00416836 1.45565e-17)
(1.06424 0.0170649 2.34704e-17)
(1.00305 0.0332246 1.79552e-17)
(0.940315 0.045623 1.69572e-17)
(0.875409 0.0539189 1.94528e-17)
(0.809275 0.0585558 3.6953e-18)
(0.741076 0.0584425 1.04887e-17)
(0.67206 0.0539511 5.39075e-18)
(0.601386 0.0437454 1.7415e-17)
(0.531257 0.0285042 1.08276e-17)
(0.461495 0.00633461 4.12081e-18)
(0.396039 -0.0218854 4.89021e-18)
(0.336434 -0.0598659 2.10415e-17)
(0.291904 -0.0882337 1.28505e-17)
(0.179382 -0.144399 -5.8335e-18)
(0.086601 -0.216265 3.04631e-17)
(0.0776738 -0.275464 5.72647e-17)
(0.136453 -0.326588 7.16318e-17)
(0.222785 -0.365953 1.05588e-16)
(0.302319 -0.394996 3.80933e-17)
(0.361933 -0.418866 2.27608e-17)
(0.4006 -0.442412 1.21765e-17)
(0.419627 -0.468159 2.50259e-18)
(0.42117 -0.497588 1.59354e-17)
(0.409385 -0.531254 -1.22849e-17)
(0.389496 -0.56836 -8.59859e-18)
(0.364691 -0.607521 -4.55194e-18)
(0.333735 -0.64736 -6.46028e-18)
(0.292419 -0.687132 1.30362e-17)
(0.238338 -0.726241 -1.89787e-17)
(0.173996 -0.762966 1.49692e-17)
(0.103351 -0.796214 1.11883e-17)
(0.0256781 -0.828227 -1.4691e-17)
(-0.0613064 -0.861877 2.07558e-17)
(-0.155922 -0.892951 6.9654e-19)
(-0.252091 -0.921077 2.55756e-17)
(-0.340373 -0.943537 2.4451e-17)
(-0.412996 -0.956506 3.55097e-17)
(-0.461704 -0.955136 4.2901e-17)
(-0.476246 -0.932489 6.31632e-17)
(-0.446732 -0.883511 4.56316e-17)
(-0.370417 -0.809289 5.48101e-17)
(-0.256647 -0.720445 4.22855e-17)
(-0.124766 -0.632889 2.42164e-17)
(-0.0137482 -0.74766 7.78373e-18)
(0.142771 -0.597512 2.95576e-18)
(0.258623 -0.516016 1.43094e-18)
(0.33039 -0.417248 1.70018e-17)
(0.401398 -0.326477 1.35742e-17)
(0.456464 -0.236557 1.51845e-17)
(0.494023 -0.16005 4.08869e-17)
(0.516684 -0.10037 5.24131e-17)
(0.535898 -0.0615021 2.88429e-17)
(0.570091 -0.0414682 3.1035e-18)
(0.627483 -0.0303827 1.75961e-17)
(0.705709 -0.0197476 5.9862e-18)
(0.792603 -0.00424433 1.91302e-17)
(0.877447 0.0169341 9.32937e-18)
(0.956821 0.0435387 8.25793e-18)
(1.02981 0.0756852 6.75885e-18)
(1.09574 0.11389 5.90828e-18)
(1.15378 0.159247 4.97e-18)
(1.20249 0.212681 4.75696e-18)
(1.23995 0.273958 -4.94856e-18)
(1.26378 0.341292 5.18697e-18)
(1.27147 0.411303 4.15647e-18)
(1.26113 0.479383 -4.92968e-18)
(1.23227 0.540456 -9.49723e-20)
(1.18654 0.589965 4.97118e-18)
(1.12763 0.624746 7.90234e-19)
(1.06059 0.643566 -5.18395e-19)
(0.990755 0.647327 -1.02603e-18)
(0.92301 0.638788 2.75009e-18)
(0.861504 0.621709 2.47709e-18)
(0.813332 0.602888 7.76817e-19)
(0.749589 0.610852 1.35253e-18)
(0.701776 0.588026 2.73147e-18)
(0.637953 0.583173 8.3058e-19)
(0.585764 0.55076 3.01066e-18)
(0.522867 0.529772 3.12769e-18)
(0.470193 0.485028 2.22735e-18)
(0.412071 0.446441 1.25588e-18)
(0.364103 0.388521 -7.11634e-18)
(0.315838 0.332788 -1.08423e-17)
(0.278126 0.262719 -1.37631e-18)
(0.244742 0.192202 -1.3677e-17)
(0.221399 0.11301 -3.43412e-19)
(0.206787 0.0326428 -8.73823e-18)
(0.201999 -0.0511969 -9.02877e-18)
(0.207541 -0.134223 -2.57068e-17)
(0.222363 -0.218265 -7.71011e-18)
(0.249463 -0.295997 -8.33852e-19)
(0.282627 -0.37564 -8.17539e-20)
(0.327951 -0.441561 2.18516e-17)
(0.375322 -0.511681 6.85328e-18)
(0.435129 -0.561247 1.00203e-17)
(0.491991 -0.618532 1.18665e-17)
(0.561009 -0.649826 1.43475e-17)
(0.621871 -0.692851 1.05364e-17)
(0.69487 -0.705983 1.28309e-17)
(0.75465 -0.735529 1.14171e-17)
(0.827649 -0.732583 1.39395e-17)
(0.882717 -0.751597 1.33711e-17)
(0.954822 -0.736729 1.63889e-17)
(1.0114 -0.751176 1.77744e-17)
(1.08354 -0.763178 1.36694e-17)
(1.16335 -0.766218 1.54301e-17)
(1.24636 -0.756089 1.13823e-17)
(1.32732 -0.729557 1.82634e-17)
(1.40076 -0.685523 1.79385e-17)
(1.46173 -0.625334 1.10881e-17)
(1.50681 -0.5524 2.25407e-17)
(1.53463 -0.471509 2.55966e-17)
(1.54592 -0.387967 2.19898e-17)
(1.54274 -0.306681 1.15858e-17)
(1.52796 -0.231575 1.90166e-17)
(1.50429 -0.16522 1.07056e-17)
(1.47466 -0.108221 8.93107e-18)
(1.44127 -0.0606745 5.96043e-18)
(1.4063 -0.0208737 1.37461e-17)
(1.37026 0.0124498 7.92176e-18)
(1.33429 0.0419131 1.01715e-17)
(1.29714 0.0677573 1.80405e-17)
(1.26003 0.0920334 2.832e-18)
(1.22043 0.112743 1.14733e-17)
(1.18123 0.132155 1.47543e-17)
(1.13841 0.146328 3.44654e-18)
(1.09829 0.159812 -8.05934e-18)
(1.05338 0.166009 -1.11215e-18)
(1.01672 0.174274 -1.16147e-17)
(0.971882 0.172009 -5.71829e-18)
(0.948604 0.179649 -1.43581e-17)
(0.900903 0.167907 5.98438e-18)
(0.919914 0.187505 6.2687e-18)
(0.832624 0.157592 -1.75667e-18)
(0.714009 0.0906429 -5.5512e-19)
(0.593384 0.0125292 3.66862e-18)
(0.486102 -0.0667459 6.90625e-18)
(0.40923 -0.139316 3.19566e-17)
(0.371843 -0.20116 -8.71112e-18)
(0.370416 -0.250305 2.14203e-17)
(0.392219 -0.287198 1.11696e-17)
(0.421945 -0.314266 -1.75465e-17)
(0.44721 -0.334016 -4.87874e-17)
(0.460766 -0.349933 -2.18244e-17)
(0.460065 -0.365518 -2.13031e-17)
(0.44557 -0.382597 3.64202e-17)
(0.417853 -0.402013 -1.97192e-17)
(0.376478 -0.424804 -7.93071e-17)
(0.321022 -0.452289 -7.50352e-17)
(0.253434 -0.485525 4.642e-18)
(0.176074 -0.524965 1.21088e-17)
(0.0898355 -0.568037 4.53128e-17)
(-0.0055649 -0.61424 -6.12e-17)
(-0.105726 -0.666404 -3.58358e-17)
(-0.20571 -0.722566 -1.61373e-17)
(-0.299636 -0.780629 -2.39376e-17)
(-0.3836 -0.839184 4.01596e-19)
(-0.453267 -0.894466 -8.97602e-18)
(-0.498179 -0.937402 2.76827e-17)
(-0.502082 -0.951454 4.46771e-17)
(-0.448972 -0.926319 4.30856e-17)
(-0.335422 -0.869081 3.39564e-17)
(-0.179112 -0.800772 2.34229e-17)
(-0.0963859 -0.819811 3.16363e-17)
(0.107495 -0.710937 1.85499e-17)
(0.302265 -0.626887 1.74891e-17)
(0.414696 -0.553545 1.5331e-17)
(0.507979 -0.478424 1.81748e-17)
(0.590384 -0.389992 9.26401e-18)
(0.656121 -0.299024 6.52676e-18)
(0.70491 -0.218763 2.82709e-17)
(0.741507 -0.150786 1.84142e-17)
(0.781617 -0.0973432 1.61158e-17)
(0.833375 -0.0574042 1.90127e-17)
(0.898628 -0.0276234 1.82965e-17)
(0.97096 -0.00244256 2.10367e-17)
(1.04207 0.0223725 4.13651e-18)
(1.10797 0.049548 1.03296e-17)
(1.16723 0.0813102 9.19074e-18)
(1.21918 0.118782 1.19659e-17)
(1.26306 0.162962 1.03984e-17)
(1.29753 0.214502 1.31751e-17)
(1.32051 0.273037 -4.94536e-19)
(1.32946 0.33674 -2.31486e-18)
(1.32202 0.40217 3.55574e-18)
(1.29696 0.46471 -1.3187e-18)
(1.25493 0.519509 3.77181e-18)
(1.19868 0.5625 1.49295e-18)
(1.13261 0.591158 1.26915e-18)
(1.06179 0.604798 1.31141e-18)
(0.991081 0.604543 1.41318e-18)
(0.924881 0.592972 3.26279e-19)
(0.866729 0.573633 2.97073e-18)
(0.822904 0.553737 1.49145e-18)
(0.763046 0.564155 -1.94437e-18)
(0.719954 0.541879 -2.08545e-18)
(0.660239 0.539766 -1.12741e-18)
(0.612369 0.509166 -6.88116e-19)
(0.553447 0.491493 3.72966e-18)
(0.504395 0.449731 3.29192e-18)
(0.44965 0.415093 9.39691e-18)
(0.404448 0.361047 2.18966e-18)
(0.358702 0.309841 -1.49011e-17)
(0.322955 0.244229 -1.28359e-17)
(0.29138 0.178616 5.62859e-19)
(0.26911 0.104102 -1.38573e-17)
(0.255223 0.0286902 -8.41261e-18)
(0.250724 -0.0503003 -2.35813e-17)
(0.256091 -0.128409 -1.21721e-17)
(0.270526 -0.207537 1.85041e-17)
(0.296749 -0.280558 4.71375e-18)
(0.328614 -0.35515 1.26775e-17)
(0.371767 -0.416389 1.65682e-17)
(0.417121 -0.481632 2.56657e-18)
(0.473768 -0.526728 1.29259e-17)
(0.527718 -0.579857 1.46401e-17)
(0.592654 -0.60707 6.86724e-18)
(0.649653 -0.647001 8.63686e-18)
(0.718061 -0.656635 1.0004e-17)
(0.773164 -0.684404 1.22689e-17)
(0.841593 -0.678587 1.72366e-17)
(0.891511 -0.697157 1.80676e-17)
(0.959424 -0.679835 2.52721e-17)
(1.0115 -0.695441 2.39924e-17)
(1.0803 -0.709695 1.80202e-17)
(1.15869 -0.715648 2.15391e-17)
(1.24275 -0.709208 1.23991e-17)
(1.32754 -0.687274 1.53049e-17)
(1.40782 -0.64849 2.10168e-18)
(1.4786 -0.593589 2.08644e-17)
(1.53554 -0.525339 2.1173e-17)
(1.57622 -0.448145 2.76844e-17)
(1.60006 -0.367179 1.31333e-17)
(1.6087 -0.287696 2.1061e-17)
(1.60489 -0.213817 1.25989e-17)
(1.59206 -0.147843 9.44015e-18)
(1.57371 -0.0908944 6.40395e-18)
(1.55317 -0.0422695 6.58065e-18)
(1.53246 0.00027785 1.31501e-17)
(1.51232 0.0380056 1.26541e-17)
(1.4932 0.073819 1.50476e-17)
(1.4741 0.10686 1.00465e-17)
(1.45581 0.140374 3.19365e-18)
(1.43595 0.170092 1.32586e-17)
(1.41772 0.201869 1.38953e-17)
(1.3963 0.226874 1.62158e-17)
(1.3801 0.257835 9.14371e-18)
(1.35798 0.27758 1.46662e-17)
(1.3487 0.31211 2.06698e-17)
(1.32599 0.327462 1.67974e-17)
(1.33087 0.374133 6.5309e-18)
(1.30223 0.384929 1.054e-17)
(1.33153 0.453277 6.63275e-18)
(1.28376 0.454693 1.15336e-17)
(1.21723 0.436166 3.02671e-18)
(1.14131 0.407605 1.86943e-17)
(1.05885 0.372315 1.73522e-17)
(0.973426 0.331152 2.03215e-17)
(0.889245 0.284911 2.00176e-17)
(0.810712 0.235808 3.03344e-18)
(0.74139 0.187191 3.28073e-17)
(0.682689 0.141942 2.58167e-17)
(0.633783 0.1019 -1.35588e-17)
(0.59192 0.067559 -1.04686e-17)
(0.553221 0.037934 -4.80065e-17)
(0.513487 0.0116402 5.39173e-17)
(0.469301 -0.0130144 3.0697e-17)
(0.418093 -0.0381231 -8.95869e-19)
(0.357917 -0.0652248 -9.02286e-17)
(0.288086 -0.0979543 -4.96336e-17)
(0.209339 -0.137775 -4.99881e-17)
(0.123647 -0.185061 -9.43927e-17)
(0.0327056 -0.241385 -7.42873e-17)
(-0.0614534 -0.308959 5.63875e-17)
(-0.152998 -0.382938 5.39322e-17)
(-0.236722 -0.459202 -1.48423e-18)
(-0.311274 -0.538187 -2.43423e-17)
(-0.374127 -0.620298 -3.36092e-17)
(-0.425556 -0.70648 -4.6041e-17)
(-0.46484 -0.785378 1.24489e-17)
(-0.471332 -0.836956 1.06672e-17)
(-0.412506 -0.850525 5.5851e-17)
(-0.279192 -0.835017 2.75093e-17)
(-0.201022 -0.737217 2.53161e-17)
(-0.0219977 -0.718702 2.29514e-17)
(0.244237 -0.65182 1.75084e-17)
(0.450565 -0.594472 1.52519e-17)
(0.581595 -0.552681 1.05496e-17)
(0.693576 -0.496278 8.61567e-18)
(0.792976 -0.416545 9.11839e-18)
(0.870857 -0.331171 9.19322e-18)
(0.928761 -0.24853 1.49229e-17)
(0.976797 -0.172644 1.43089e-17)
(1.02352 -0.107371 1.70763e-17)
(1.07169 -0.0557495 1.72247e-17)
(1.12178 -0.0164416 2.04135e-17)
(1.17087 0.0162316 8.38309e-19)
(1.21667 0.0463983 7.62894e-18)
(1.2579 0.078399 1.38931e-18)
(1.2937 0.114677 1.72101e-17)
(1.32319 0.156661 1.30686e-17)
(1.34479 0.2052 6.68493e-18)
(1.35619 0.26013 4.64436e-18)
(1.35467 0.319865 3.6574e-21)
(1.33789 0.38119 4.35162e-18)
(1.30492 0.439637 1.7912e-19)
(1.25683 0.490509 1.58612e-18)
(1.19672 0.529895 5.91112e-18)
(1.12902 0.555408 6.12452e-18)
(1.05848 0.566418 9.42876e-18)
(0.989599 0.56394 4.54675e-18)
(0.926432 0.550399 8.54567e-18)
(0.871969 0.52935 8.16632e-18)
(0.831947 0.508417 8.93467e-18)
(0.776259 0.520956 3.21522e-18)
(0.737085 0.49928 -1.52228e-19)
(0.681602 0.499571 -4.42602e-18)
(0.637418 0.470763 -6.90134e-18)
(0.582468 0.455984 -7.19071e-18)
(0.536626 0.41705 5.44538e-18)
(0.485215 0.385878 7.76964e-18)
(0.442503 0.335435 8.73076e-18)
(0.39924 0.288283 -5.74735e-18)
(0.365222 0.22683 -1.73858e-17)
(0.335524 0.165772 3.20514e-18)
(0.314307 0.0957334 3.47193e-18)
(0.301167 0.0250028 -5.15869e-18)
(0.296954 -0.0493391 -9.08256e-18)
(0.302128 -0.122765 7.53243e-18)
(0.316272 -0.197207 1.01039e-17)
(0.341484 -0.265758 5.74859e-20)
(0.372034 -0.335466 1.83005e-17)
(0.412984 -0.392447 1.23693e-17)
(0.456496 -0.453038 1.09942e-17)
(0.510025 -0.494254 6.80806e-18)
(0.561319 -0.543404 5.62488e-18)
(0.622238 -0.567129 1.25419e-17)
(0.675888 -0.604068 1.91993e-17)
(0.739672 -0.610691 1.80637e-17)
(0.790945 -0.636705 2.4694e-17)
(0.854558 -0.628344 2.8165e-17)
(0.900328 -0.64646 3.13634e-17)
(0.963595 -0.626918 3.78656e-17)
(1.01176 -0.643751 3.38288e-17)
(1.0769 -0.659831 3.35051e-17)
(1.15235 -0.667788 3.07183e-17)
(1.23467 -0.663444 2.89449e-17)
(1.31915 -0.643744 1.95059e-17)
(1.40074 -0.607449 1.33701e-17)
(1.47452 -0.555113 1.83024e-17)
(1.53588 -0.489413 1.20223e-17)
(1.58188 -0.414593 2.35772e-17)
(1.61128 -0.335854 1.30511e-17)
(1.6256 -0.258607 1.53082e-17)
(1.62716 -0.18662 1.64466e-17)
(1.62032 -0.122323 2.28971e-17)
(1.60865 -0.0662664 8.61265e-18)
(1.59567 -0.0173207 3.27504e-17)
(1.58237 0.0269142 2.64763e-17)
(1.57053 0.0678776 1.42259e-17)
(1.5588 0.108052 1.5748e-17)
(1.54851 0.146212 1.60145e-17)
(1.53703 0.18552 1.45138e-17)
(1.52693 0.221309 1.49161e-17)
(1.51464 0.26064 1.52603e-17)
(1.50499 0.293462 5.42744e-18)
(1.49267 0.335446 1.0147e-17)
(1.48483 0.365927 9.12201e-18)
(1.4733 0.416033 2.07082e-18)
(1.46679 0.44467 1.31646e-17)
(1.45525 0.509233 1.00506e-17)
(1.44567 0.534162 1.36924e-17)
(1.43331 0.618442 7.96844e-18)
(1.41226 0.638092 -1.75681e-18)
(1.38322 0.656088 5.74313e-20)
(1.34807 0.671842 2.02923e-18)
(1.30684 0.685014 5.26294e-18)
(1.25941 0.694231 7.12423e-18)
(1.20596 0.697923 9.57345e-18)
(1.14724 0.695428 3.79221e-17)
(1.08443 0.687357 9.17661e-18)
(1.01844 0.674767 3.72595e-17)
(0.950159 0.658599 5.02598e-17)
(0.880292 0.63955 4.29525e-17)
(0.808942 0.617876 3.52755e-17)
(0.735547 0.593341 4.40874e-17)
(0.659521 0.565408 7.82981e-18)
(0.580426 0.532981 3.9489e-17)
(0.49748 0.495023 1.78195e-17)
(0.40964 0.450384 1.1655e-17)
(0.318751 0.397546 1.00744e-17)
(0.225178 0.336297 -7.24012e-18)
(0.130503 0.266438 -6.1028e-17)
(0.0371434 0.187879 -3.12048e-17)
(-0.0538836 0.100896 -3.9477e-17)
(-0.139546 0.00222395 4.15111e-17)
(-0.21769 -0.102922 -4.20211e-19)
(-0.283863 -0.208647 4.5681e-17)
(-0.327666 -0.320279 6.74995e-18)
(-0.354296 -0.433366 9.0919e-18)
(-0.372845 -0.530341 -3.51847e-17)
(-0.372048 -0.601921 2.00782e-17)
(-0.329454 -0.660727 3.61764e-17)
(-0.183023 -0.463496 2.34144e-17)
(-0.134751 -0.576406 2.28567e-17)
(0.0675539 -0.592432 1.95945e-17)
(0.356221 -0.552154 1.04609e-17)
(0.573658 -0.525922 6.16801e-18)
(0.717453 -0.514439 1.99693e-18)
(0.844336 -0.474521 3.87163e-18)
(0.957026 -0.405998 -4.50658e-18)
(1.04289 -0.328447 5.61377e-18)
(1.10507 -0.248493 -1.05247e-18)
(1.15492 -0.170382 -5.62864e-19)
(1.19509 -0.102172 -8.33181e-18)
(1.22855 -0.0472015 8.15993e-18)
(1.25793 -0.00319618 6.72627e-18)
(1.28488 0.0331788 8.37843e-18)
(1.30938 0.0674819 1.01499e-17)
(1.33102 0.103574 1.22496e-17)
(1.34883 0.143765 9.99714e-18)
(1.36098 0.189521 7.06591e-18)
(1.36482 0.241193 7.90206e-18)
(1.35739 0.297565 5.7917e-18)
(1.33619 0.355737 8.93405e-18)
(1.3002 0.41141 9.80957e-18)
(1.25047 0.459908 1.40292e-17)
(1.19003 0.497238 1.85692e-17)
(1.12314 0.520906 1.06752e-17)
(1.05437 0.530185 1.15802e-17)
(0.988055 0.526032 5.48054e-18)
(0.928124 0.510927 1.32857e-17)
(0.87715 0.488548 9.42063e-18)
(0.840509 0.466844 1.20298e-17)
(0.788842 0.480935 1.1057e-17)
(0.753164 0.45998 9.25061e-18)
(0.701684 0.462162 4.61861e-18)
(0.660895 0.43517 -1.13138e-18)
(0.609761 0.422863 -1.04244e-17)
(0.566952 0.386661 -1.0173e-17)
(0.518794 0.358593 -3.67138e-18)
(0.478445 0.311528 2.95976e-19)
(0.437598 0.268095 7.30845e-18)
(0.40513 0.210497 -8.09449e-18)
(0.377261 0.153694 -2.75772e-19)
(0.357103 0.0878987 3.03633e-18)
(0.344704 0.0215969 8.3441e-18)
(0.340787 -0.0483224 -1.20931e-17)
(0.34578 -0.117296 8.29801e-18)