/*--------------------------------*- C++ -*----------------------------------*\
| =========                 |                                                 |
| \\      /  F ield         | OpenFOAM: The Open Source CFD Toolbox           |
|  \\    /   O peration     | Version:  3.0.1                                 |
|   \\  /    A nd           | Web:      www.OpenFOAM.org                      |
|    \\/     M anipulation  |                                                 |
\*---------------------------------------------------------------------------*/
FoamFile
{
    version     2.0;
    format      ascii;
    class       volScalarField;
    location    "103.168276575899711";
    object      p;
}
// * * * * * * * * * * * * * * * * * * * * * * * * * * * * * * * * * * * * * //

dimensions      [0 2 -2 0 0 0 0];

internalField   nonuniform List<scalar> 
8400
(
-0.924202
-0.911606
-0.900025
-0.891056
-0.885211
-0.881996
-0.881104
-0.883045
-0.887408
-0.893393
-0.900018
-0.907151
-0.914513
-0.921448
-0.926995
-0.930015
-0.929215
-0.922978
-0.909969
-0.889202
-0.860111
-0.822541
-0.776632
-0.722676
-0.661046
-0.592394
-0.518014
-0.440145
-0.362128
-0.287647
-0.217664
-0.148565
-0.0745696
-0.00136238
0.0733884
0.145132
0.215533
0.280742
0.341786
0.39564
0.442631
0.480739
0.50984
0.528982
0.537799
0.536114
0.523977
0.501834
0.469712
0.429105
0.379613
0.324037
0.261352
0.195405
0.124513
0.0532919
-0.0204391
-0.0915554
-0.162731
-0.22787
-0.293098
-0.362157
-0.433834
-0.503869
-0.56845
-0.625035
-0.672143
-0.70905
-0.735396
-0.750946
-0.755727
-0.75026
-0.735863
-0.713733
-0.685561
-0.653526
-0.619931
-0.587161
-0.55706
-0.530586
-0.508205
-0.489831
-0.474969
-0.462969
-0.453291
-0.445711
-0.440835
-0.439142
-0.440875
-0.445936
-0.453527
-0.464639
-0.473242
-0.479264
-0.482301
-0.483469
-0.484582
-0.4885
-0.499174
-0.51968
-0.549316
-0.583335
-0.615834
-0.641397
-0.654512
-0.657795
-0.65665
-0.658901
-0.670985
-0.696025
-0.733245
-0.778488
-0.825933
-0.86959
-0.904488
-0.928737
-0.942467
-0.947504
-0.944492
-0.935966
-0.962719
-0.944985
-0.924117
-0.902987
-0.887381
-0.87664
-0.87149
-0.871012
-0.873869
-0.878541
-0.884681
-0.891519
-0.899022
-0.906965
-0.914639
-0.920906
-0.924254
-0.922835
-0.914574
-0.897709
-0.871116
-0.834342
-0.787446
-0.730797
-0.664958
-0.590842
-0.510205
-0.426246
-0.343391
-0.265017
-0.193571
-0.12688
-0.0568292
0.0125157
0.0835268
0.152246
0.219903
0.283075
0.3423
0.39489
0.440849
0.47832
0.506981
0.52593
0.534731
0.533197
0.521404
0.499748
0.468418
0.428746
0.380688
0.326691
0.266265
0.202733
0.135123
0.06736
-0.00211359
-0.0690055
-0.135974
-0.198854
-0.265915
-0.338923
-0.415413
-0.491454
-0.561927
-0.62309
-0.672925
-0.710473
-0.735263
-0.747172
-0.74662
-0.734588
-0.712434
-0.682449
-0.647436
-0.610486
-0.574554
-0.542011
-0.514259
-0.49179
-0.474501
-0.461527
-0.451856
-0.444509
-0.438906
-0.435134
-0.433224
-0.433176
-0.434426
-0.437087
-0.442053
-0.449824
-0.45846
-0.467141
-0.475512
-0.484102
-0.493183
-0.503419
-0.5171
-0.536571
-0.562163
-0.591089
-0.617294
-0.636313
-0.652749
-0.666549
-0.679675
-0.694486
-0.715686
-0.746148
-0.785924
-0.831602
-0.877572
-0.918536
-0.950919
-0.97327
-0.985723
-0.988891
-0.985327
-0.97837
-1.0075
-0.988498
-0.963631
-0.937294
-0.91145
-0.89012
-0.874583
-0.865945
-0.863409
-0.865337
-0.869484
-0.874975
-0.881346
-0.888548
-0.896338
-0.903824
-0.909237
-0.910384
-0.904852
-0.890384
-0.865208
-0.82831
-0.779464
-0.719085
-0.648118
-0.568137
-0.481709
-0.392707
-0.305783
-0.224831
-0.155821
-0.0933268
-0.0289195
0.0354178
0.100956
0.165264
0.228496
0.288325
0.344419
0.394778
0.438824
0.475048
0.502793
0.521295
0.530008
0.528743
0.517631
0.496952
0.467166
0.429285
0.38386
0.33269
0.27619
0.216648
0.15428
0.0915814
0.0283181
-0.0330217
-0.0938673
-0.152347
-0.216994
-0.292735
-0.373627
-0.455117
-0.531672
-0.598667
-0.653145
-0.693461
-0.718823
-0.729153
-0.72518
-0.708448
-0.681405
-0.647442
-0.610372
-0.573855
-0.54083
-0.513062
-0.491071
-0.474408
-0.461977
-0.452387
-0.444192
-0.436245
-0.427977
-0.419573
-0.411589
-0.404459
-0.398637
-0.394715
-0.394224
-0.398441
-0.407055
-0.420358
-0.438171
-0.460543
-0.486883
-0.516247
-0.547795
-0.580844
-0.614428
-0.647458
-0.678517
-0.70507
-0.724012
-0.738223
-0.750943
-0.765541
-0.784595
-0.81082
-0.84492
-0.884559
-0.925175
-0.961671
-0.990605
-1.01092
-1.02324
-1.02892
-1.02894
-1.02146
-0.990384
-0.990007
-0.978723
-0.961126
-0.936676
-0.911408
-0.887732
-0.869392
-0.85746
-0.852117
-0.85168
-0.85443
-0.859096
-0.865166
-0.872355
-0.879724
-0.885622
-0.88778
-0.88349
-0.870126
-0.845377
-0.807715
-0.756684
-0.692881
-0.617836
-0.533939
-0.444474
-0.353577
-0.265854
-0.185532
-0.120177
-0.062095
-0.00297629
0.0566886
0.117188
0.177213
0.236153
0.29254
0.345383
0.393315
0.435248
0.470051
0.496727
0.514697
0.523299
0.522356
0.51205
0.492524
0.464507
0.428655
0.386093
0.337989
0.285477
0.230026
0.172634
0.11482
0.0571635
0.000942946
-0.0542475
-0.108114
-0.168998
-0.244036
-0.325739
-0.409187
-0.488822
-0.559661
-0.617932
-0.661115
-0.687838
-0.697891
-0.692306
-0.67335
-0.644485
-0.610004
-0.574374
-0.541313
-0.513283
-0.49116
-0.474457
-0.461786
-0.451386
-0.44152
-0.43085
-0.418747
-0.405311
-0.392781
-0.382712
-0.376276
-0.373623
-0.374683
-0.379753
-0.387951
-0.399213
-0.414821
-0.437219
-0.468018
-0.506498
-0.550705
-0.598399
-0.647203
-0.694571
-0.73822
-0.776903
-0.809893
-0.834768
-0.849451
-0.855404
-0.856615
-0.857394
-0.861996
-0.873185
-0.89074
-0.912187
-0.934005
-0.952721
-0.966496
-0.975524
-0.98106
-0.984631
-0.987688
-0.878635
-0.903513
-0.919023
-0.926832
-0.923777
-0.913602
-0.89541
-0.874807
-0.855271
-0.841508
-0.833782
-0.831336
-0.832717
-0.836789
-0.842691
-0.849315
-0.854893
-0.857405
-0.85376
-0.841073
-0.816672
-0.778627
-0.726315
-0.660515
-0.583263
-0.497583
-0.407208
-0.316375
-0.229715
-0.151622
-0.0900929
-0.0364183
0.0180636
0.0734064
0.129542
0.185629
0.240774
0.293933
0.34381
0.389401
0.429342
0.462748
0.488397
0.505837
0.51433
0.513708
0.504185
0.485804
0.459461
0.425602
0.385698
0.340532
0.291605
0.239961
0.18691
0.133541
0.080666
0.0291195
-0.0211957
-0.0705202
-0.127493
-0.200081
-0.280535
-0.363732
-0.444051
-0.516387
-0.576477
-0.621146
-0.648532
-0.658327
-0.651921
-0.632308
-0.60376
-0.571133
-0.539032
-0.51086
-0.48834
-0.471414
-0.458792
-0.44852
-0.438705
-0.427899
-0.415539
-0.402037
-0.388796
-0.377643
-0.37007
-0.367225
-0.369832
-0.378921
-0.396417
-0.418475
-0.443511
-0.471588
-0.504544
-0.542555
-0.58511
-0.631801
-0.682345
-0.735819
-0.790221
-0.842705
-0.890108
-0.929726
-0.958933
-0.973874
-0.973392
-0.961088
-0.942471
-0.919297
-0.894146
-0.871503
-0.856361
-0.84928
-0.845814
-0.842574
-0.839243
-0.83749
-0.841197
-0.855148
-0.657041
-0.710781
-0.760447
-0.802425
-0.832204
-0.849643
-0.854477
-0.849559
-0.838806
-0.825295
-0.813691
-0.806334
-0.803746
-0.804972
-0.808718
-0.813826
-0.819
-0.822228
-0.819197
-0.807197
-0.783442
-0.745711
-0.693198
-0.626773
-0.54881
-0.46276
-0.372658
-0.282891
-0.198215
-0.122928
-0.0650709
-0.0156082
0.0346776
0.086043
0.138266
0.190751
0.242482
0.292649
0.339831
0.383202
0.421301
0.453362
0.478053
0.494981
0.503364
0.503045
0.494242
0.476955
0.452142
0.420192
0.382714
0.340299
0.294602
0.246444
0.197266
0.1479
0.0992654
0.051954
0.00599171
-0.0390391
-0.092301
-0.161836
-0.240019
-0.32186
-0.401585
-0.473917
-0.534287
-0.579113
-0.606259
-0.615479
-0.608581
-0.589213
-0.56222
-0.532672
-0.504937
-0.481761
-0.464017
-0.450872
-0.440686
-0.43151
-0.42204
-0.411635
-0.400929
-0.39114
-0.384291
-0.381828
-0.385071
-0.394243
-0.409768
-0.429389
-0.453433
-0.471544
-0.496485
-0.532013
-0.574435
-0.620936
-0.670322
-0.722418
-0.777158
-0.83403
-0.891816
-0.948509
-1.00004
-1.04278
-1.07312
-1.08774
-1.08299
-1.05759
-1.0203
-0.969135
-0.909448
-0.847673
-0.789839
-0.738564
-0.695118
-0.659424
-0.629682
-0.606729
-0.597947
-0.614597
-0.377863
-0.447072
-0.522583
-0.59543
-0.6608
-0.713122
-0.750665
-0.772819
-0.782212
-0.782505
-0.778325
-0.773633
-0.770892
-0.770935
-0.773501
-0.777638
-0.781885
-0.784012
-0.782487
-0.771455
-0.748654
-0.711781
-0.659835
-0.593701
-0.515962
-0.430373
-0.341236
-0.253151
-0.170971
-0.0987368
-0.0444098
0.00118932
0.0476387
0.0953569
0.144012
0.193179
0.241791
0.289171
0.333872
0.375137
0.411514
0.442273
0.46606
0.482487
0.490759
0.490722
0.48258
0.466333
0.442933
0.41281
0.377569
0.33773
0.294978
0.250025
0.204352
0.158617
0.113804
0.0703098
0.0282794
-0.0128669
-0.0625832
-0.12882
-0.204186
-0.284021
-0.362453
-0.433966
-0.493729
-0.537914
-0.564289
-0.572795
-0.565682
-0.547127
-0.522285
-0.496184
-0.472702
-0.45375
-0.439427
-0.428463
-0.41936
-0.41067
-0.402109
-0.393881
-0.387709
-0.384807
-0.387514
-0.395978
-0.411879
-0.433443
-0.462542
-0.49497
-0.533351
-0.563582
-0.59273
-0.62591
-0.664108
-0.707648
-0.756806
-0.811004
-0.868776
-0.928161
-0.987059
-1.04955
-1.09867
-1.13805
-1.16383
-1.17256
-1.16196
-1.13115
-1.07485
-1.00264
-0.916538
-0.819631
-0.719935
-0.629152
-0.553675
-0.4869
-0.423392
-0.368639
-0.33336
-0.33386
-0.150516
-0.203886
-0.279228
-0.362156
-0.447172
-0.527004
-0.595609
-0.648992
-0.686252
-0.709202
-0.721378
-0.727078
-0.730001
-0.732655
-0.736194
-0.740568
-0.744801
-0.746996
-0.744813
-0.735469
-0.71395
-0.67826
-0.627323
-0.562015
-0.485053
-0.400437
-0.312736
-0.226775
-0.147431
-0.0783948
-0.0274631
0.0146067
0.0575636
0.10193
0.147316
0.193409
0.239142
0.283915
0.326312
0.365581
0.400328
0.429828
0.452748
0.468683
0.476837
0.477058
0.469528
0.454268
0.432194
0.403814
0.370653
0.333222
0.293177
0.251184
0.208703
0.166281
0.124917
0.084872
0.0463685
0.00871936
-0.0376005
-0.100398
-0.172592
-0.24997
-0.326658
-0.3969
-0.455607
-0.498789
-0.524223
-0.532098
-0.525073
-0.507697
-0.485218
-0.462448
-0.442593
-0.4268
-0.414608
-0.404736
-0.396111
-0.388083
-0.381249
-0.376429
-0.375604
-0.379414
-0.389673
-0.405216
-0.427258
-0.452504
-0.48268
-0.51273
-0.547296
-0.582171
-0.618859
-0.660242
-0.706295
-0.755531
-0.806735
-0.859278
-0.912624
-0.965819
-1.01723
-1.06438
-1.10362
-1.13195
-1.14627
-1.14396
-1.12329
-1.08359
-1.02512
-0.949617
-0.85862
-0.755815
-0.648109
-0.538782
-0.435975
-0.347833
-0.274265
-0.210279
-0.157861
-0.132459
-0.0216406
-0.0416655
-0.0907066
-0.16178
-0.245214
-0.333512
-0.419907
-0.497157
-0.560414
-0.608319
-0.641907
-0.664042
-0.678397
-0.688194
-0.695728
-0.702185
-0.707506
-0.71045
-0.708889
-0.700363
-0.680076
-0.645711
-0.596046
-0.531885
-0.456054
-0.372769
-0.286863
-0.203361
-0.127078
-0.061309
-0.0136299
0.0252048
0.0649742
0.106256
0.14863
0.191861
0.234917
0.277241
0.317476
0.354853
0.388047
0.416328
0.438406
0.453855
0.461883
0.462337
0.45538
0.441054
0.420239
0.393517
0.362303
0.327122
0.289584
0.250332
0.210778
0.171389
0.133148
0.096223
0.0608889
0.0264022
-0.0166782
-0.0759759
-0.144774
-0.219364
-0.29398
-0.362666
-0.42009
-0.462147
-0.486671
-0.494104
-0.487448
-0.47147
-0.451381
-0.431568
-0.414555
-0.400946
-0.390015
-0.380816
-0.37275
-0.365951
-0.361366
-0.360063
-0.363306
-0.371142
-0.383968
-0.400271
-0.418838
-0.43696
-0.455242
-0.470773
-0.490698
-0.517364
-0.55072
-0.590352
-0.634357
-0.680589
-0.727419
-0.773846
-0.819064
-0.862084
-0.90146
-0.935339
-0.961598
-0.978059
-0.982663
-0.973538
-0.949274
-0.90899
-0.852969
-0.782923
-0.702215
-0.615814
-0.523501
-0.430318
-0.342163
-0.262142
-0.187102
-0.118064
-0.0612166
-0.0262535
0.0428535
0.0417981
0.0223368
-0.0203055
-0.0854705
-0.165606
-0.252978
-0.340625
-0.421193
-0.489756
-0.544523
-0.585695
-0.615239
-0.63602
-0.650769
-0.661585
-0.669446
-0.673977
-0.673579
-0.665581
-0.647109
-0.614284
-0.56607
-0.503281
-0.428843
-0.347174
-0.263351
-0.182552
-0.109463
-0.0469723
-0.00239778
0.0334659
0.0703153
0.108752
0.148341
0.188898
0.229447
0.269458
0.307649
0.343229
0.374936
0.402039
0.423293
0.43826
0.446153
0.446815
0.440396
0.426957
0.407345
0.382195
0.352808
0.319734
0.284532
0.24783
0.21097
0.174363
0.138959
0.104864
0.0723879
0.0407655
0.000763802
-0.0550382
-0.120316
-0.191882
-0.264179
-0.331105
-0.387121
-0.428033
-0.451744
-0.458941
-0.452877
-0.438405
-0.420555
-0.403168
-0.388343
-0.376259
-0.366193
-0.357692
-0.350561
-0.345439
-0.343094
-0.344323
-0.349314
-0.357663
-0.368125
-0.378531
-0.387965
-0.394735
-0.398584
-0.399735
-0.404457
-0.419744
-0.444938
-0.476685
-0.511481
-0.54702
-0.582185
-0.616551
-0.64981
-0.681349
-0.710125
-0.734748
-0.753464
-0.764471
-0.765952
-0.756542
-0.735261
-0.701991
-0.65747
-0.603211
-0.540971
-0.472392
-0.399389
-0.324786
-0.252065
-0.183618
-0.120453
-0.0621736
-0.0100109
0.0304879
0.0721848
0.0816859
0.0794914
0.0612137
0.0217771
-0.0379547
-0.112991
-0.197347
-0.283986
-0.36551
-0.436922
-0.495899
-0.541782
-0.575842
-0.600407
-0.617851
-0.629934
-0.637175
-0.638683
-0.632253
-0.615139
-0.583958
-0.537334
-0.476103
-0.403278
-0.323463
-0.241957
-0.164033
-0.0941985
-0.0349517
0.0066695
0.0397998
0.0739658
0.109769
0.146774
0.184829
0.223017
0.260836
0.297084
0.33095
0.361228
0.387192
0.407637
0.422123
0.429871
0.430718
0.424808
0.412212
0.39375
0.37009
0.342421
0.311327
0.278313
0.243987
0.209616
0.175564
0.142746
0.111229
0.0813369
0.0523144
0.0152285
-0.0371334
-0.0988469
-0.167238
-0.23703
-0.302039
-0.356571
-0.396343
-0.419347
-0.426476
-0.421141
-0.408189
-0.392397
-0.377276
-0.36403
-0.352959
-0.343705
-0.33608
-0.330071
-0.32633
-0.325106
-0.326717
-0.330416
-0.335335
-0.33967
-0.342227
-0.341721
-0.337638
-0.330215
-0.321245
-0.316889
-0.324466
-0.343179
-0.36806
-0.394895
-0.421618
-0.44771
-0.473268
-0.498368
-0.522557
-0.544908
-0.564053
-0.578604
-0.587232
-0.5888
-0.58247
-0.567682
-0.544212
-0.511853
-0.47099
-0.422207
-0.36705
-0.307367
-0.245735
-0.184347
-0.125207
-0.0699588
-0.0194739
0.023716
0.0576042
0.0508433
0.0790447
0.0942944
0.0969005
0.0819269
0.0462569
-0.00865895
-0.0792384
-0.16082
-0.246191
-0.327691
-0.40029
-0.461003
-0.508733
-0.544526
-0.570399
-0.588326
-0.599487
-0.60369
-0.599339
-0.584031
-0.554623
-0.509732
-0.450232
-0.379214
-0.301461
-0.222458
-0.147523
-0.0809492
-0.0248783
0.0139411
0.0445527
0.0762458
0.109604
0.144206
0.179914
0.215875
0.251609
0.285999
0.318223
0.347125
0.371986
0.391637
0.405644
0.413237
0.414248
0.408819
0.397025
0.379663
0.357413
0.331365
0.302135
0.271177
0.239071
0.207003
0.175303
0.144853
0.115689
0.0881412
0.0614844
0.0271505
-0.0218664
-0.0800303
-0.145164
-0.212317
-0.27529
-0.328284
-0.366923
-0.389313
-0.396488
-0.391925
-0.380383
-0.366391
-0.352781
-0.340796
-0.330673
-0.322215
-0.315345
-0.310101
-0.306825
-0.305257
-0.305187
-0.305328
-0.304835
-0.302102
-0.296563
-0.287452
-0.275316
-0.261108
-0.247462
-0.240051
-0.244731
-0.260344
-0.281492
-0.304028
-0.326272
-0.348132
-0.370025
-0.392177
-0.414357
-0.435959
-0.455775
-0.4724
-0.484207
-0.489983
-0.488609
-0.479393
-0.461652
-0.435228
-0.400487
-0.35856
-0.311212
-0.260576
-0.208757
-0.157445
-0.108741
-0.0641882
-0.0256414
0.00633489
0.0309698
-0.024855
0.0118706
0.0461259
0.0743814
0.0923264
0.0868052
0.0567322
0.00620137
-0.0608326
-0.140508
-0.224565
-0.305096
-0.376939
-0.436878
-0.483964
-0.519214
-0.54427
-0.560512
-0.5683
-0.566622
-0.553366
-0.526106
-0.483146
-0.42555
-0.356516
-0.281004
-0.204652
-0.132769
-0.0694242
-0.0164376
0.0197297
0.0480162
0.0774251
0.108509
0.140868
0.174372
0.208229
0.241976
0.274585
0.30523
0.332802
0.356594
0.375467
0.388995
0.396422
0.397579
0.392605
0.381576
0.365264
0.344347
0.31983
0.292365
0.263343
0.233311
0.203375
0.173847
0.145574
0.118564
0.0931501
0.0686513
0.0369045
-0.00888948
-0.0635631
-0.125415
-0.189834
-0.250689
-0.302096
-0.339609
-0.361456
-0.36872
-0.364887
-0.354632
-0.342059
-0.329746
-0.318784
-0.309373
-0.301451
-0.29492
-0.289753
-0.285813
-0.282512
-0.279192
-0.274548
-0.267991
-0.258437
-0.246149
-0.231046
-0.214492
-0.197766
-0.183622
-0.17654
-0.180773
-0.194988
-0.214331
-0.235499
-0.257353
-0.279814
-0.303288
-0.327826
-0.352999
-0.377713
-0.400706
-0.420692
-0.436464
-0.447039
-0.451325
-0.448622
-0.438012
-0.419395
-0.393106
-0.360514
-0.323279
-0.283088
-0.241536
-0.19996
-0.16027
-0.124046
-0.0928463
-0.0659194
-0.0461393
-0.0991435
-0.0666228
-0.0305812
0.00622414
0.0455334
0.0762657
0.078994
0.0546459
0.00868272
-0.0560254
-0.133934
-0.215903
-0.293989
-0.363126
-0.420321
-0.464937
-0.497813
-0.520062
-0.532277
-0.533923
-0.52329
-0.498288
-0.457472
-0.401945
-0.335058
-0.261942
-0.188353
-0.119552
-0.0593724
-0.00936211
0.0243
0.0504355
0.0777298
0.106694
0.136954
0.168385
0.200252
0.232106
0.263004
0.292128
0.31841
0.341164
0.359275
0.372326
0.379579
0.380864
0.376319
0.366016
0.350705
0.331052
0.307986
0.282192
0.254995
0.226899
0.198943
0.171427
0.145159
0.120129
0.096665
0.074136
0.0448121
0.00210272
-0.0491732
-0.107759
-0.16939
-0.228071
-0.277845
-0.314246
-0.335582
-0.342916
-0.339742
-0.330592
-0.319232
-0.307947
-0.29769
-0.28869
-0.280907
-0.274157
-0.268223
-0.26258
-0.256505
-0.249086
-0.239401
-0.2272
-0.212183
-0.195354
-0.177082
-0.159199
-0.14263
-0.129883
-0.124246
-0.12922
-0.143744
-0.163461
-0.185288
-0.208304
-0.232674
-0.258929
-0.287449
-0.318223
-0.349972
-0.380999
-0.409281
-0.433769
-0.453424
-0.467444
-0.474392
-0.473048
-0.463147
-0.444963
-0.419987
-0.389304
-0.354766
-0.317425
-0.278946
-0.24196
-0.206937
-0.175767
-0.147332
-0.12017
-0.120295
-0.0884999
-0.0574994
-0.0269161
0.00875048
0.0518376
0.0795979
0.0786166
0.0516918
0.00460414
-0.0603615
-0.136946
-0.216044
-0.290514
-0.355587
-0.408706
-0.449414
-0.478199
-0.495508
-0.501047
-0.493489
-0.471073
-0.432612
-0.379317
-0.314728
-0.244139
-0.173395
-0.107675
-0.0505785
-0.00342486
0.0278758
0.0520174
0.0773485
0.104335
0.132628
0.162105
0.192088
0.222137
0.251393
0.279049
0.30408
0.325822
0.343187
0.355763
0.362834
0.364232
0.360093
0.350479
0.33612
0.317663
0.295975
0.271767
0.246289
0.220002
0.193887
0.16824
0.143828
0.120622
0.0989423
0.0782093
0.0511473
0.0113777
-0.0366178
-0.0919826
-0.150809
-0.207279
-0.255381
-0.29068
-0.311494
-0.318861
-0.316272
-0.308062
-0.297669
-0.287103
-0.277225
-0.268284
-0.260164
-0.25256
-0.245048
-0.236961
-0.227534
-0.21592
-0.20174
-0.185104
-0.166511
-0.147282
-0.128058
-0.110696
-0.0953531
-0.0843701
-0.0798328
-0.0852043
-0.099432
-0.119525
-0.143468
-0.170056
-0.199673
-0.233866
-0.273363
-0.316603
-0.360819
-0.40373
-0.444392
-0.482546
-0.516787
-0.544898
-0.564149
-0.573165
-0.570751
-0.557616
-0.534492
-0.502994
-0.464819
-0.421176
-0.375486
-0.327595
-0.282864
-0.237815
-0.19672
-0.155524
-0.118235
-0.0695496
-0.0326354
-0.0076508
0.0129809
0.0419163
0.0767499
0.0923728
0.0802936
0.0468557
-0.00415356
-0.0705771
-0.14581
-0.22171
-0.291818
-0.351886
-0.399852
-0.435245
-0.458057
-0.467943
-0.463855
-0.444364
-0.408478
-0.357577
-0.295424
-0.227472
-0.159632
-0.096968
-0.042858
0.00156497
0.0306456
0.0529358
0.0764391
0.101578
0.128025
0.15566
0.183857
0.212185
0.239865
0.266106
0.28992
0.310677
0.327312
0.339416
0.346298
0.347794
0.344035
0.335075
0.321622
0.304299
0.28392
0.261217
0.237357
0.21276
0.188362
0.164457
0.141765
0.120243
0.100197
0.081098
0.0561458
0.0191686
-0.0256803
-0.077891
-0.133926
-0.188158
-0.23456
-0.268756
-0.288999
-0.296383
-0.294288
-0.286823
-0.277139
-0.266971
-0.257144
-0.247879
-0.238912
-0.229838
-0.220163
-0.209242
-0.19637
-0.181083
-0.163481
-0.144005
-0.123655
-0.10366
-0.0849001
-0.068747
-0.0545068
-0.0445145
-0.0389761
-0.044821
-0.0626078
-0.087941
-0.117414
-0.15159
-0.193047
-0.242302
-0.297096
-0.354472
-0.413031
-0.472355
-0.532283
-0.590963
-0.645545
-0.692047
-0.72713
-0.748288
-0.754666
-0.746453
-0.723999
-0.688252
-0.639486
-0.580976
-0.514756
-0.445469
-0.374044
-0.303096
-0.237715
-0.171013
-0.18034
-0.0931428
-0.0273224
0.0138821
0.0353213
0.0582625
0.0836841
0.104513
0.10316
0.0791271
0.0383924
-0.0169953
-0.0848986
-0.158619
-0.230848
-0.295882
-0.350072
-0.391728
-0.42015
-0.434682
-0.434358
-0.418053
-0.384993
-0.336647
-0.277055
-0.211832
-0.14693
-0.0872833
-0.0360544
0.00576648
0.0327654
0.0533365
0.0751337
0.0985417
0.123257
0.149153
0.175657
0.202344
0.228511
0.253389
0.276022
0.295817
0.311736
0.323373
0.330062
0.331641
0.328239
0.319898
0.307305
0.291059
0.271925
0.250648
0.228308
0.205293
0.182501
0.160223
0.139131
0.119163
0.100606
0.0829955
0.0600124
0.0256787
-0.0161659
-0.0653087
-0.118589
-0.170561
-0.215255
-0.248327
-0.267944
-0.275308
-0.27359
-0.266687
-0.257432
-0.24734
-0.237263
-0.227278
-0.216971
-0.205978
-0.193852
-0.180005
-0.164025
-0.146
-0.126303
-0.105586
-0.0848756
-0.0652833
-0.0478863
-0.033198
-0.0206635
-0.0127261
-0.00866454
-0.020036
-0.0428045
-0.0715861
-0.106573
-0.150349
-0.203556
-0.264142
-0.329355
-0.397584
-0.4681
-0.540364
-0.613838
-0.686781
-0.75631
-0.817751
-0.866849
-0.900275
-0.916893
-0.915805
-0.897316
-0.861289
-0.808949
-0.742438
-0.665664
-0.584285
-0.500346
-0.421211
-0.337504
-0.274673
-0.294086
-0.196139
-0.0902363
-0.0273539
0.0286871
0.0663632
0.0910767
0.111656
0.118877
0.104447
0.0724189
0.0259318
-0.033665
-0.102529
-0.174183
-0.242023
-0.30106
-0.348283
-0.382125
-0.401422
-0.405073
-0.392037
-0.362082
-0.31646
-0.259543
-0.197121
-0.135176
-0.0784919
-0.0300352
0.00931127
0.034363
0.05334
0.0735427
0.0953261
0.118413
0.142668
0.167568
0.19269
0.217406
0.240973
0.262461
0.281317
0.296535
0.307711
0.314202
0.315851
0.312781
0.305024
0.293248
0.278023
0.260074
0.240148
0.219236
0.197703
0.176416
0.155663
0.136058
0.117518
0.100319
0.0840712
0.0629269
0.0310871
-0.00790126
-0.0540791
-0.104652
-0.154359
-0.197346
-0.229252
-0.24823
-0.255432
-0.25399
-0.247484
-0.238352
-0.228065
-0.217472
-0.206352
-0.19434
-0.181254
-0.166597
-0.149974
-0.131594
-0.111954
-0.0914503
-0.0707952
-0.0510438
-0.033224
-0.0177716
-0.00498627
0.00358651
0.00633585
0.0058558
-0.00873664
-0.0313463
-0.0601107
-0.0970551
-0.143187
-0.19788
-0.258646
-0.323197
-0.390769
-0.460853
-0.533175
-0.607233
-0.681077
-0.751287
-0.813928
-0.865327
-0.902752
-0.924462
-0.929512
-0.917718
-0.889311
-0.845741
-0.789084
-0.722239
-0.648703
-0.572981
-0.502917
-0.437629
-0.387592
-0.339353
-0.275529
-0.189147
-0.11343
-0.0269796
0.0305394
0.0734774
0.102889
0.120049
0.118674
0.0974193
0.0598848
0.00847283
-0.0541704
-0.122984
-0.191486
-0.253752
-0.30557
-0.344386
-0.36838
-0.376131
-0.366508
-0.339717
-0.296968
-0.242822
-0.183254
-0.124268
-0.0704832
-0.0246877
0.0123081
0.0355412
0.0530432
0.0717572
0.0920132
0.113566
0.136275
0.159654
0.183285
0.206609
0.228915
0.249296
0.267236
0.281768
0.292487
0.298777
0.300485
0.297724
0.290518
0.279518
0.265262
0.248437
0.229788
0.210219
0.190076
0.170204
0.150879
0.132652
0.115422
0.0994666
0.0844747
0.0650474
0.0355497
-0.000732122
-0.044061
-0.0919838
-0.139441
-0.18071
-0.21141
-0.229734
-0.23669
-0.235389
-0.229053
-0.219753
-0.209098
-0.197676
-0.185056
-0.171266
-0.156089
-0.138926
-0.120034
-0.100217
-0.0799051
-0.0595778
-0.0403684
-0.0231324
-0.00818753
0.00378332
0.0115358
0.0144427
0.0143127
0.0129124
6.74185e-05
-0.0178745
-0.0410639
-0.0707533
-0.107977
-0.153206
-0.205066
-0.261552
-0.321153
-0.382685
-0.445149
-0.50732
-0.567451
-0.623218
-0.672004
-0.711362
-0.739531
-0.75546
-0.758682
-0.74945
-0.728557
-0.697532
-0.657635
-0.609814
-0.554439
-0.495111
-0.441038
-0.403779
-0.380554
-0.267025
-0.259585
-0.23232
-0.177413
-0.105775
-0.0373899
0.0264035
0.0698861
0.102045
0.116784
0.110052
0.0838891
0.0415975
-0.0137443
-0.0779735
-0.145181
-0.208977
-0.264237
-0.307363
-0.335788
-0.347628
-0.341642
-0.317946
-0.278137
-0.226833
-0.170158
-0.114117
-0.0631623
-0.0199166
0.014848
0.0363832
0.0525229
0.0698501
0.0886706
0.108777
0.130024
0.151965
0.174175
0.196165
0.217261
0.236574
0.253622
0.267481
0.277751
0.283838
0.285592
0.283117
0.276431
0.266165
0.252829
0.237072
0.219627
0.20132
0.182484
0.163946
0.145957
0.129002
0.112972
0.0981646
0.0843373
0.0665081
0.0392028
0.00547781
-0.0351271
-0.0804641
-0.125701
-0.16524
-0.194695
-0.212333
-0.218974
-0.217692
-0.211244
-0.201592
-0.190409
-0.177774
-0.163562
-0.14814
-0.130832
-0.111495
-0.091292
-0.0708288
-0.0503874
-0.0313255
-0.0150471
-0.0017057
0.00847218
0.0150418
0.0202971
0.0232196
0.0244727
0.0240721
0.016482
0.00212842
-0.0154907
-0.0391627
-0.0691558
-0.105595
-0.147826
-0.194398
-0.243493
-0.293412
-0.342434
-0.388881
-0.431272
-0.468155
-0.498331
-0.520731
-0.534506
-0.539665
-0.536483
-0.525679
-0.507902
-0.484576
-0.45692
-0.425197
-0.388235
-0.345503
-0.301005
-0.267597
-0.260194
-0.166822
-0.184148
-0.191453
-0.178615
-0.144465
-0.0915073
-0.0319807
0.023367
0.0683978
0.0993172
0.108491
0.0962781
0.0650972
0.0183514
-0.0395845
-0.10375
-0.167455
-0.224885
-0.271492
-0.303919
-0.319683
-0.317307
-0.296785
-0.259952
-0.211534
-0.15777
-0.104648
-0.0564474
-0.0156407
0.0170081
0.0369574
0.0518396
0.0678783
0.0853519
0.104092
0.123958
0.144538
0.165399
0.186109
0.206044
0.224327
0.240509
0.253712
0.263539
0.269421
0.271209
0.268999
0.262801
0.253233
0.240767
0.226022
0.209714
0.192593
0.174988
0.157705
0.140962
0.125178
0.110255
0.0965153
0.0837701
0.0674218
0.042164
0.0108467
-0.0271593
-0.0699868
-0.113045
-0.15085
-0.179012
-0.195926
-0.202192
-0.20076
-0.193968
-0.183892
-0.17189
-0.157813
-0.142249
-0.125207
-0.105855
-0.0852934
-0.064703
-0.0439187
-0.0241155
-0.00744622
0.00561933
0.0159192
0.0241912
0.0329222
0.0340243
0.0321213
0.0218219
0.024182
0.0266167
0.0175823
0.000809382
-0.0231529
-0.0529596
-0.0866682
-0.123453
-0.161422
-0.199982
-0.237025
-0.271556
-0.301999
-0.327469
-0.34731
-0.361166
-0.369102
-0.371207
-0.367159
-0.357422
-0.343102
-0.326018
-0.307277
-0.287633
-0.266927
-0.243368
-0.215141
-0.183269
-0.155039
-0.1473
-0.0987753
-0.11862
-0.136596
-0.143315
-0.136613
-0.109983
-0.0688032
-0.0185766
0.0299769
0.0709332
0.0944168
0.0969684
0.0784567
0.0419309
-0.00877109
-0.0678497
-0.129795
-0.188049
-0.237194
-0.273047
-0.292463
-0.293571
-0.276243
-0.242407
-0.196889
-0.146038
-0.0957953
-0.0502685
-0.011791
0.0188547
0.0373214
0.0510412
0.0658846
0.0820985
0.0995499
0.118107
0.137401
0.156982
0.176468
0.195288
0.212582
0.227924
0.240485
0.249877
0.255553
0.257366
0.255399
0.24966
0.240751
0.22911
0.215322
0.200086
0.184081
0.167637
0.151533
0.135948
0.121241
0.107346
0.0946062
0.0828644
0.0678818
0.0445329
0.0154804
-0.0200511
-0.0604579
-0.101384
-0.137453
-0.164279
-0.180217
-0.18623
-0.184474
-0.177243
-0.166605
-0.153474
-0.138095
-0.121371
-0.102598
-0.0819268
-0.0612871
-0.0406265
-0.0201047
-0.00238554
0.0114267
0.022742
0.032253
0.0379169
0.0308572
0.0118127
-0.0107409
-0.0256411
0.0129716
0.00738703
-0.00427606
-0.0230832
-0.0488143
-0.0787541
-0.110932
-0.143293
-0.175003
-0.204226
-0.230179
-0.250876
-0.265948
-0.275163
-0.27874
-0.277431
-0.271719
-0.262848
-0.251909
-0.238979
-0.224168
-0.207911
-0.191556
-0.175364
-0.159645
-0.144327
-0.128042
-0.109383
-0.091543
-0.0858199
-0.0546163
-0.0710289
-0.0898127
-0.103825
-0.109531
-0.102177
-0.0821648
-0.045897
-0.00299157
0.0397384
0.0720937
0.0877668
0.082172
0.0570154
0.0152476
-0.0377451
-0.0964124
-0.154154
-0.204837
-0.243421
-0.26613
-0.270535
-0.256348
-0.225502
-0.182871
-0.134915
-0.087503
-0.0445649
-0.00830915
0.0204432
0.037524
0.0501663
0.0639009
0.07894
0.0951781
0.112497
0.130573
0.148941
0.167257
0.185009
0.201352
0.215883
0.22782
0.236784
0.242253
0.244081
0.242337
0.237029
0.228744
0.217881
0.204999
0.190772
0.175818
0.160467
0.145471
0.130957
0.117245
0.104313
0.0925101
0.0816927
0.0679641
0.0463958
0.0194731
-0.0137096
-0.0517895
-0.0906345
-0.124963
-0.150441
-0.165512
-0.171017
-0.168816
-0.161072
-0.149639
-0.135315
-0.118918
-0.100967
-0.0807824
-0.0599966
-0.0397805
-0.0192765
-0.000833074
0.0126319
0.0223789
0.0287796
0.0255267
0.00387532
-0.0315486
-0.0572605
-0.0709386
-0.0922366
-0.0881768
-0.096058
-0.106121
-0.123614
-0.14778
-0.173379
-0.199383
-0.222925
-0.244817
-0.262943
-0.27486
-0.279508
-0.276485
-0.267146
-0.253675
-0.236895
-0.218713
-0.199041
-0.179445
-0.160423
-0.142721
-0.126673
-0.113229
-0.10259
-0.0928503
-0.0821471
-0.0702197
-0.0584358
-0.0485279
-0.0456598
-0.0264827
-0.0377181
-0.0532737
-0.0685759
-0.0797901
-0.0825324
-0.0732639
-0.0555697
-0.0246817
0.012758
0.0473775
0.0716805
0.0778411
0.0641038
0.0320794
-0.0137218
-0.0676548
-0.123537
-0.174718
-0.215286
-0.240832
-0.248303
-0.237145
-0.209241
-0.169465
-0.124361
-0.0797241
-0.0392862
-0.00514633
0.0218189
0.0376048
0.0492464
0.0619511
0.075897
0.0909962
0.107143
0.124065
0.141286
0.158488
0.175214
0.190646
0.204396
0.215725
0.224271
0.229533
0.231366
0.229826
0.224923
0.217227
0.207098
0.195071
0.181795
0.167828
0.153509
0.139548
0.126025
0.113239
0.101213
0.0902843
0.0803127
0.0677328
0.0478275
0.0229063
-0.00805119
-0.0439032
-0.0807204
-0.1133
-0.137437
-0.151615
-0.156506
-0.15379
-0.145397
-0.133021
-0.117669
-0.10037
-0.0812465
-0.0605692
-0.0404804
-0.0207604
-0.00204909
0.0113704
0.0188675
0.0222134
0.0153868
-0.00924571
-0.0427138
-0.0689596
-0.0748276
-0.111877
-0.156676
-0.192982
-0.227825
-0.25778
-0.294178
-0.328642
-0.360601
-0.380629
-0.392386
-0.397732
-0.3988
-0.393367
-0.376675
-0.34998
-0.315234
-0.277631
-0.239998
-0.204407
-0.172013
-0.142683
-0.116884
-0.0945262
-0.0757134
-0.0601
-0.0489998
-0.0431206
-0.0402546
-0.0359036
-0.02842
-0.0214354
-0.0199792
-0.0113818
-0.0173098
-0.0273055
-0.0401778
-0.0530786
-0.0619017
-0.0624883
-0.0537878
-0.0354829
-0.00680836
0.0252623
0.0526999
0.0676355
0.0644642
0.0423489
0.00446259
-0.0437803
-0.0963965
-0.147078
-0.188874
-0.216729
-0.22698
-0.218671
-0.193628
-0.156658
-0.114346
-0.0724154
-0.0343907
-0.00226283
0.0230184
0.0375956
0.0483069
0.0600535
0.0729826
0.0870161
0.102055
0.117886
0.134022
0.150163
0.165907
0.180467
0.193464
0.204205
0.212342
0.217397
0.219227
0.217873
0.213351
0.206209
0.196772
0.185551
0.173169
0.160133
0.146784
0.133791
0.121183
0.109262
0.0980913
0.0879738
0.0787717
0.067244
0.0488939
0.0258519
-0.00300126
-0.0367305
-0.0715689
-0.102383
-0.125215
-0.138463
-0.142684
-0.139367
-0.130195
-0.116891
-0.100683
-0.0825527
-0.0627303
-0.0424815
-0.0234065
-0.00513289
0.00908687
0.0158455
0.0175715
0.0123476
-0.00749567
-0.0344038
-0.0546912
-0.0615588
-0.0780688
-0.126266
-0.203921