/*--------------------------------*- C++ -*----------------------------------*\
| =========                 |                                                 |
| \\      /  F ield         | OpenFOAM: The Open Source CFD Toolbox           |
|  \\    /   O peration     | Version:  3.0.1                                 |
|   \\  /    A nd           | Web:      www.OpenFOAM.org                      |
|    \\/     M anipulation  |                                                 |
\*---------------------------------------------------------------------------*/
FoamFile
{
    version     2.0;
    format      ascii;
    class       volVectorField;
    location    "103.168276575899711";
    object      U;
}
// * * * * * * * * * * * * * * * * * * * * * * * * * * * * * * * * * * * * * //

dimensions      [0 1 -1 0 0 0 0];

internalField   nonuniform List<vector> 
8400
(
(0.0166391 0.0965159 6.04448e-17)
(0.0335533 0.061096 4.3311e-17)
(0.0456361 0.0211215 3.77231e-17)
(0.0510219 -0.013098 4.28909e-17)
(0.0512227 -0.0358869 6.10297e-17)
(0.0505719 -0.0462372 4.64585e-17)
(0.0524543 -0.0448961 1.3969e-17)
(0.0581154 -0.0358188 1.76809e-17)
(0.0671586 -0.0251392 1.74952e-17)
(0.0793541 -0.0173773 -5.47974e-18)
(0.0948889 -0.0130478 -1.37917e-17)
(0.113396 -0.010442 -9.05494e-18)
(0.133737 -0.00793104 4.00019e-18)
(0.154778 -0.00448612 6.90326e-18)
(0.17536 0.00054228 1.10152e-17)
(0.194743 0.00741625 3.45824e-18)
(0.212895 0.0161539 -2.31464e-18)
(0.230272 0.0270764 -3.20579e-18)
(0.247212 0.0403717 5.16725e-18)
(0.264286 0.0561627 9.2998e-18)
(0.282292 0.0748276 4.81732e-18)
(0.301838 0.0969676 -1.41757e-18)
(0.323175 0.123294 4.48284e-18)
(0.346092 0.154568 -2.09571e-18)
(0.36972 0.191458 -1.19801e-18)
(0.392255 0.23408 -1.82936e-18)
(0.410855 0.281082 -1.37043e-18)
(0.422511 0.328783 -2.62944e-19)
(0.426376 0.371784 -1.11417e-18)
(0.424751 0.405638 -5.57404e-19)
(0.40957 0.42581 -8.19649e-19)
(0.359541 0.404403 3.34673e-19)
(0.32733 0.401492 -2.52831e-18)
(0.280352 0.380994 -1.72162e-18)
(0.244184 0.36409 -1.95202e-18)
(0.201861 0.337527 -3.26478e-18)
(0.167293 0.311112 -1.82311e-18)
(0.131428 0.278647 -3.14411e-18)
(0.10174 0.245072 -4.54722e-18)
(0.0738708 0.207813 -2.9156e-18)
(0.0514621 0.169101 -2.72541e-18)
(0.0327584 0.128402 -2.82066e-18)
(0.01921 0.0866716 8.75883e-20)
(0.0103825 0.0439618 1.2987e-18)
(0.00654258 0.00072094 -8.76885e-18)
(0.00773179 -0.0425362 -9.19432e-18)
(0.0138649 -0.0855551 -1.13583e-17)
(0.0252197 -0.128096 -7.84369e-18)
(0.0409361 -0.169583 2.42071e-19)
(0.0623079 -0.210315 -5.50563e-18)
(0.0866438 -0.248386 -5.70764e-19)
(0.117395 -0.285828 -1.27439e-18)
(0.148649 -0.318253 -1.04269e-18)
(0.18762 -0.351029 -7.85183e-19)
(0.223335 -0.375599 9.86986e-19)
(0.268874 -0.402373 1.14077e-18)
(0.305557 -0.416614 -1.20713e-19)
(0.355661 -0.437337 1.57271e-18)
(0.387362 -0.436374 -4.49859e-19)
(0.44032 -0.458641 3.60456e-18)
(0.452743 -0.432774 -4.74735e-18)
(0.450955 -0.393688 3.85296e-18)
(0.443193 -0.345598 2.77169e-18)
(0.426987 -0.293179 2.11664e-18)
(0.403249 -0.242311 2.29411e-18)
(0.375321 -0.196904 -7.24577e-18)
(0.346249 -0.15823 -5.84918e-18)
(0.317809 -0.126005 -5.39519e-18)
(0.290669 -0.0994726 -2.28849e-18)
(0.264799 -0.0779276 3.34021e-18)
(0.239693 -0.0608581 1.90285e-18)
(0.215014 -0.0478442 -1.21837e-18)
(0.189551 -0.0380365 -1.04141e-19)
(0.16196 -0.0314894 1.55257e-18)
(0.131612 -0.0283816 6.38674e-18)
(0.0986359 -0.028723 -3.8066e-18)
(0.0639266 -0.0322449 -1.8752e-18)
(0.0291466 -0.0382907 4.89563e-19)
(-0.00394669 -0.0460556 7.65379e-18)
(-0.0339609 -0.0551251 2.32993e-18)
(-0.0595678 -0.0649573 -5.94889e-19)
(-0.0801686 -0.0746086 -6.90627e-18)
(-0.0960171 -0.0827874 -1.72797e-17)
(-0.107879 -0.08766 -1.97642e-17)
(-0.116374 -0.0872874 -1.82302e-17)
(-0.121539 -0.0799799 -2.80591e-17)
(-0.123621 -0.0652909 -4.13727e-17)
(-0.123244 -0.0449422 -5.2155e-17)
(-0.121476 -0.0213942 -3.75267e-17)
(-0.118868 0.00148525 -1.42847e-17)
(-0.113698 0.0196447 1.95552e-17)
(-0.10481 0.0331199 2.26562e-17)
(-0.0963229 0.0326974 -2.3802e-19)
(-0.0871568 0.015476 -1.32136e-17)
(-0.0740718 -0.0190593 -5.61798e-17)
(-0.0517624 -0.0726302 -2.60463e-17)
(-0.015026 -0.147151 -4.24461e-17)
(0.0322803 -0.242527 2.60612e-19)
(0.0716993 -0.353341 1.95121e-17)
(0.0878436 -0.467641 1.17194e-17)
(0.0839011 -0.570786 2.55839e-17)
(0.0688113 -0.651837 2.76141e-17)
(0.0490083 -0.705917 3.09417e-17)
(0.0305349 -0.731399 2.90171e-17)
(0.0163039 -0.723258 2.91743e-17)
(0.00180817 -0.679743 3.07021e-17)
(-0.0150246 -0.607978 1.92091e-17)
(-0.0318763 -0.516245 4.00787e-17)
(-0.0488042 -0.411298 4.01568e-17)
(-0.063878 -0.301173 2.17736e-17)
(-0.0752397 -0.193456 4.06884e-17)
(-0.0821415 -0.094469 3.81622e-17)
(-0.0842111 -0.00658032 3.34683e-17)
(-0.0824802 0.0632429 2.45407e-17)
(-0.0765072 0.111559 6.34654e-17)
(-0.0670728 0.142005 5.30482e-17)
(-0.054611 0.15647 5.20872e-17)
(-0.0396959 0.15686 7.73426e-17)
(-0.0224164 0.144524 8.58146e-17)
(-0.00194417 0.122864 9.02589e-17)
(0.116397 0.0338118 -1.11772e-17)
(0.136776 0.0517527 -2.08401e-17)
(0.152238 0.0470624 2.08415e-17)
(0.15967 0.0285683 6.21746e-17)
(0.159575 -0.00333943 5.43452e-17)
(0.155815 -0.0380234 5.1342e-17)
(0.158152 -0.0663059 4.59857e-17)
(0.174395 -0.0807538 4.76953e-17)
(0.204205 -0.0815594 5.53255e-17)
(0.242029 -0.0736009 1.62679e-17)
(0.283925 -0.0626315 -4.01899e-19)
(0.329077 -0.051042 -3.20895e-18)
(0.37669 -0.0380407 5.81817e-18)
(0.42538 -0.0222843 1.3764e-17)
(0.473301 -0.00269022 -3.64231e-19)
(0.518755 0.0212932 -1.62142e-18)
(0.561012 0.049706 -7.89549e-18)
(0.600687 0.0828522 6.78662e-19)
(0.638345 0.121033 8.6742e-18)
(0.674572 0.164572 1.07832e-17)
(0.710147 0.213921 -9.47362e-19)
(0.745304 0.269559 -6.75298e-18)
(0.77907 0.331585 -1.19556e-17)
(0.808935 0.399115 -6.52716e-18)
(0.831101 0.469598 -4.01311e-18)
(0.841628 0.538601 -6.65963e-18)
(0.838189 0.600754 -7.98491e-18)
(0.821584 0.651665 2.2045e-19)
(0.795574 0.689595 -4.71872e-18)
(0.763904 0.715322 -2.32463e-18)
(0.725775 0.72821 -4.43963e-18)
(0.640485 0.698969 -4.18736e-18)
(0.590368 0.693796 -5.7439e-18)
(0.510524 0.660752 -6.03056e-18)
(0.453895 0.63499 -7.15224e-18)
(0.381494 0.592245 -7.01434e-18)
(0.32523 0.548654 -4.3039e-18)
(0.263186 0.494704 -6.20155e-18)
(0.213207 0.43653 -1.25212e-17)
(0.164375 0.372069 -8.28154e-18)
(0.125653 0.302795 -7.25577e-18)
(0.0924413 0.229886 -9.34595e-18)
(0.0685865 0.153521 -3.39141e-19)
(0.0529739 0.0751496 -7.46494e-18)
(0.0462573 -0.00482651 -1.60884e-17)
(0.048628 -0.0847977 -2.54245e-17)
(0.0598414 -0.164553 -3.24767e-17)
(0.0807386 -0.242306 -1.85221e-17)
(0.10886 -0.3184 -5.74651e-18)
(0.147597 -0.390954 -3.01083e-18)
(0.189996 -0.459177 3.41803e-18)
(0.244865 -0.523617 -4.00156e-18)
(0.29774 -0.579725 -2.06773e-18)
(0.366257 -0.634007 5.11017e-19)
(0.424527 -0.674305 -2.15177e-18)
(0.503642 -0.717591 2.60764e-18)
(0.561352 -0.738897 6.36462e-19)
(0.647752 -0.772669 4.75515e-18)
(0.698038 -0.77253 2.92127e-19)
(0.789248 -0.802691 6.54436e-18)
(0.826469 -0.784037 3.95641e-18)
(0.856398 -0.751339 5.65985e-18)
(0.87972 -0.705648 3.65607e-18)
(0.892478 -0.646479 6.55836e-18)
(0.89051 -0.575902 2.54137e-18)
(0.87273 -0.498636 7.59574e-18)
(0.841442 -0.420458 -1.19324e-18)
(0.800819 -0.346252 -1.18618e-18)
(0.754866 -0.278943 -4.84913e-19)
(0.706245 -0.219642 1.4874e-19)
(0.655857 -0.168416 2.67299e-18)
(0.603578 -0.125114 -4.17712e-18)
(0.547629 -0.0888458 3.76048e-18)
(0.486396 -0.0595573 6.41442e-18)
(0.419177 -0.0376081 6.45134e-18)
(0.346607 -0.0231068 1.38722e-18)
(0.27068 -0.0158176 4.54587e-19)
(0.194603 -0.0150225 1.66598e-18)
(0.121896 -0.0195367 5.39697e-18)
(0.0555905 -0.028261 7.62056e-18)
(-0.00204677 -0.0396396 1.41056e-17)
(-0.0504866 -0.0515469 6.78466e-18)
(-0.0908193 -0.0614546 5.10505e-18)
(-0.124903 -0.0671559 2.89944e-18)
(-0.154046 -0.0677876 -2.60048e-17)
(-0.178815 -0.0651818 -3.97763e-17)
(-0.199028 -0.0636887 -6.14411e-17)
(-0.213324 -0.0689643 -4.08767e-17)
(-0.218895 -0.0861639 -8.19173e-18)
(-0.209691 -0.12036 5.4343e-18)
(-0.17767 -0.174331 1.63003e-17)
(-0.121811 -0.226329 2.34242e-17)
(-0.0537135 -0.289421 2.24358e-17)
(0.00487708 -0.357494 2.7339e-17)
(0.0445073 -0.434808 1.86221e-17)
(0.0720101 -0.520235 1.73858e-17)
(0.0923559 -0.605783 2.98998e-17)
(0.102927 -0.683746 3.45121e-17)
(0.0984595 -0.751631 4.44494e-17)
(0.0773805 -0.809151 4.3765e-17)
(0.043603 -0.856479 5.36315e-17)
(0.00206265 -0.893704 6.0237e-17)
(-0.0436887 -0.916113 5.10812e-17)
(-0.0915681 -0.917819 5.49516e-17)
(-0.140097 -0.904324 3.25216e-17)
(-0.188275 -0.881552 4.38831e-17)
(-0.231744 -0.840196 2.21991e-17)
(-0.267548 -0.779272 3.93076e-17)
(-0.293012 -0.704254 2.752e-17)
(-0.303365 -0.616987 3.78872e-17)
(-0.296746 -0.524044 2.83232e-17)
(-0.273111 -0.43129 5.5513e-17)
(-0.235555 -0.342405 3.07899e-17)
(-0.190607 -0.261527 5.74476e-17)
(-0.14212 -0.190491 4.57936e-17)
(-0.093468 -0.129946 4.75424e-17)
(-0.0463094 -0.0801199 8.8183e-17)
(-0.00103886 -0.0403854 8.15775e-17)
(0.0419508 -0.00863017 6.53218e-17)
(0.0837053 0.00925258 2.73014e-17)
(0.286559 -0.205659 1.81218e-17)
(0.302774 -0.133396 1.17407e-17)
(0.319299 -0.0977389 -1.76552e-17)
(0.319868 -0.0628861 5.75184e-17)
(0.315367 -0.0550826 4.16149e-17)
(0.307996 -0.0598243 4.25585e-17)
(0.310781 -0.0772774 4.4785e-17)
(0.333952 -0.0938932 4.52632e-17)
(0.380182 -0.102418 4.97747e-17)
(0.440878 -0.10024 5.15652e-17)
(0.505856 -0.0903585 3.44912e-17)
(0.570636 -0.0751812 5.21899e-18)
(0.634636 -0.0556208 -4.90987e-18)
(0.697369 -0.0315314 3.30058e-18)
(0.757903 -0.00256307 -1.2283e-17)
(0.815136 0.0315039 -1.07732e-18)
(0.868306 0.0711551 -4.40452e-18)
(0.917391 0.117171 1.12356e-17)
(0.962301 0.17028 1.14145e-17)
(1.00281 0.230755 5.71729e-18)
(1.03843 0.29821 8.89745e-18)
(1.06784 0.371467 5.36408e-19)
(1.08856 0.448226 -7.49546e-18)
(1.09725 0.524823 -1.88019e-18)
(1.09087 0.596355 -4.10052e-18)
(1.06816 0.657537 -3.75368e-18)
(1.03061 0.704119 -2.65119e-18)
(0.98234 0.734306 -1.39145e-18)
(0.92847 0.74938 -2.65874e-18)
(0.873228 0.752723 -6.68936e-19)
(0.822154 0.748089 -1.32045e-18)
(0.740069 0.738931 -1.82014e-18)
(0.683803 0.722958 -1.9367e-18)
(0.604405 0.703716 -2.70301e-18)
(0.542633 0.671877 -2.80115e-18)
(0.467563 0.637695 -4.16741e-18)
(0.406248 0.589261 -9.48436e-18)
(0.339398 0.538645 -9.27514e-18)
(0.284584 0.474844 -1.37484e-17)
(0.230405 0.408646 -1.37781e-17)
(0.187469 0.332079 -8.37443e-18)
(0.149856 0.253121 -1.86025e-17)
(0.123046 0.167788 -2.31947e-17)
(0.105363 0.0804947 -1.07681e-17)
(0.0978023 -0.00942017 -2.12088e-17)
(0.1007 -0.0990932 -4.03249e-17)
(0.113529 -0.189025 -2.20894e-17)
(0.137856 -0.274845 -1.00295e-17)
(0.169786 -0.360421 4.15645e-18)
(0.21399 -0.43742 6.28596e-18)
(0.261514 -0.513708 8.22475e-18)
(0.322453 -0.577563 6.37525e-18)
(0.381299 -0.640355 5.02417e-18)
(0.4547 -0.688407 2.00783e-18)
(0.519401 -0.734894 1.37002e-18)
(0.600588 -0.766433 4.5107e-18)
(0.665017 -0.795376 2.07667e-18)
(0.749964 -0.81216 7.65344e-18)
(0.80811 -0.824453 1.16888e-18)
(0.895084 -0.831731 8.84054e-18)
(0.947384 -0.832062 2.27372e-18)
(1.00332 -0.823324 8.71075e-18)
(1.05714 -0.802159 5.48504e-18)
(1.10429 -0.765267 1.57032e-17)
(1.13918 -0.711473 8.88734e-18)
(1.15723 -0.642779 1.30302e-17)
(1.15652 -0.563792 2.98603e-18)
(1.13823 -0.480316 1.09131e-18)
(1.10544 -0.39786 2.64851e-18)
(1.06178 -0.320589 -1.69106e-20)
(1.00991 -0.251091 5.03285e-18)
(0.951376 -0.190683 -8.42627e-19)
(0.886112 -0.140017 1.29133e-17)
(0.813697 -0.0993852 9.75847e-18)
(0.734064 -0.068927 9.39815e-18)
(0.648156 -0.0481814 5.65778e-18)
(0.557825 -0.0362135 3.45306e-18)
(0.465774 -0.0317138 5.15885e-18)
(0.374914 -0.0331976 1.52841e-17)
(0.287737 -0.0392709 1.41773e-17)
(0.20602 -0.0481348 1.49934e-17)
(0.130074 -0.0579536 9.47991e-18)
(0.0587775 -0.0673148 -3.60885e-18)
(-0.00893188 -0.0756273 -3.08663e-17)
(-0.0718752 -0.0840673 -3.39405e-17)
(-0.124054 -0.09676 -3.27065e-17)
(-0.153628 -0.118761 -1.66916e-17)
(-0.149711 -0.152551 9.53748e-18)
(-0.116373 -0.1972 2.21718e-17)
(-0.07752 -0.249177 1.84313e-17)
(-0.0568318 -0.308924 2.11793e-17)
(-0.0598704 -0.364339 3.53818e-18)
(-0.0370516 -0.439632 2.75457e-17)
(0.0264699 -0.518622 4.63176e-17)
(0.105682 -0.59567 5.60014e-17)
(0.171739 -0.662841 4.74092e-17)
(0.215481 -0.718551 4.28162e-17)
(0.236953 -0.763989 7.24078e-17)
(0.236168 -0.803127 4.83831e-17)
(0.214691 -0.839709 5.74401e-17)
(0.175107 -0.87597 3.8577e-17)
(0.11996 -0.912875 4.08933e-17)
(0.0529697 -0.949925 3.94457e-18)
(-0.0229324 -0.983598 1.46928e-17)
(-0.105909 -1.00626 1.18049e-17)
(-0.189935 -1.01508 2.21805e-17)
(-0.266008 -1.01324 1.71147e-17)
(-0.329082 -0.997548 2.53343e-17)
(-0.371464 -0.964527 2.60485e-17)
(-0.386349 -0.915247 3.53865e-17)
(-0.370051 -0.850881 3.47834e-17)
(-0.323276 -0.775154 3.91076e-17)
(-0.25349 -0.693741 3.91357e-17)
(-0.171594 -0.611427 3.80927e-17)
(-0.088741 -0.532659 4.60493e-17)
(-0.0115274 -0.46003 4.14129e-17)
(0.0590521 -0.39429 4.75604e-17)
(0.124743 -0.336245 2.84414e-17)
(0.186902 -0.288213 2.83637e-17)
(0.243336 -0.249261 2.23254e-17)
(0.394442 -0.470405 4.22826e-17)
(0.426138 -0.348776 4.31261e-17)
(0.468805 -0.306356 4.69513e-17)
(0.481907 -0.225752 3.97201e-17)
(0.493647 -0.189804 2.42466e-17)
(0.497003 -0.151417 -6.47376e-18)
(0.510102 -0.137688 1.03693e-17)
(0.541144 -0.131994 2.27906e-17)
(0.595363 -0.130239 1.46968e-17)
(0.665298 -0.124213 3.07912e-17)
(0.740158 -0.112151 2.47202e-17)
(0.81305 -0.0936889 1.9668e-17)
(0.881918 -0.0690949 2.30664e-17)
(0.946577 -0.0390186 2.94621e-17)
(1.00709 -0.00398552 1.47868e-17)
(1.06332 0.0361099 1.65203e-17)
(1.11476 0.0821659 -4.04208e-18)
(1.16089 0.135179 6.54491e-18)
(1.20077 0.195771 2.87972e-18)
(1.23314 0.263859 -1.26277e-19)
(1.2563 0.338074 -9.76278e-18)
(1.26798 0.415735 1.14055e-18)
(1.26559 0.492905 -8.29526e-18)
(1.24699 0.564772 -2.9223e-19)
(1.21158 0.626354 4.73787e-18)
(1.16103 0.673476 -4.64296e-18)
(1.09923 0.703724 -5.44997e-18)
(1.03135 0.717152 -7.86815e-18)
(0.962534 0.716344 -3.46655e-18)
(0.897214 0.705251 -3.18615e-18)
(0.842939 0.689824 2.81869e-18)
(0.770865 0.695139 1.44513e-18)
(0.715625 0.673183 1.90687e-18)
(0.643924 0.665787 1.64518e-18)
(0.584341 0.632091 3.78199e-18)
(0.514209 0.607874 2.9248e-18)
(0.45497 0.560172 -2.18984e-18)
(0.390601 0.517563 -2.13012e-18)
(0.337194 0.455662 -5.95911e-18)
(0.283812 0.3953 -4.89812e-18)
(0.241594 0.32076 -3.65658e-18)
(0.203906 0.245491 -1.44305e-17)
(0.177209 0.16184 -1.44076e-17)
(0.159473 0.0767336 -9.14537e-18)
(0.151929 -0.0116927 -2.3196e-17)
(0.154999 -0.0995862 -2.70536e-17)
(0.167888 -0.188211 -4.97444e-18)
(0.192826 -0.271264 8.8278e-18)
(0.224862 -0.35555 1.07532e-18)
(0.269241 -0.427636 1.4034e-17)
(0.31639 -0.502478 1.18977e-17)
(0.376274 -0.558818 8.9158e-18)
(0.434112 -0.620454 2.33397e-18)
(0.504273 -0.658618 5.29587e-18)
(0.567432 -0.705215 6.76986e-18)
(0.642454 -0.7249 7.77394e-18)
(0.705424 -0.756669 7.64119e-18)
(0.781098 -0.759826 1.09322e-17)
(0.839178 -0.779246 9.91433e-18)
(0.914412 -0.77042 1.38488e-17)
(0.971265 -0.782901 1.22662e-17)
(1.039 -0.790268 7.54882e-18)
(1.10977 -0.786855 1.27785e-17)
(1.17886 -0.768661 4.02362e-18)
(1.24062 -0.733076 1.36795e-17)
(1.2894 -0.680211 5.33392e-18)
(1.32088 -0.612857 6.88906e-18)
(1.3332 -0.535702 4.34813e-18)
(1.32684 -0.454327 8.18011e-18)
(1.30412 -0.37409 3.43274e-18)
(1.2678 -0.29933 1.57412e-17)
(1.22049 -0.232998 2.43687e-18)
(1.16386 -0.176889 8.76383e-18)
(1.09921 -0.131511 6.17191e-18)
(1.02747 -0.0965396 1.49113e-17)
(0.949854 -0.070816 4.13805e-18)
(0.867572 -0.0528395 9.8226e-18)
(0.782049 -0.040994 1.47874e-17)
(0.694511 -0.0340681 1.20866e-17)
(0.606015 -0.0312067 1.39394e-17)
(0.517169 -0.0319347 1.325e-17)
(0.427917 -0.0361142 -1.56977e-18)
(0.337254 -0.0441824 8.38517e-19)
(0.244073 -0.0572976 -3.03713e-18)
(0.148743 -0.076413 8.33907e-18)
(0.0561855 -0.102217 1.98782e-18)
(-0.0213333 -0.134749 1.14961e-17)
(-0.0664556 -0.172128 2.79125e-17)
(-0.0636143 -0.211878 3.71155e-17)
(-0.0051458 -0.252031 2.97849e-17)
(0.0961184 -0.296339 2.72487e-17)
(0.200058 -0.340167 4.30406e-17)
(0.273924 -0.384928 3.21368e-17)
(0.306666 -0.431998 3.47557e-17)
(0.318399 -0.483403 7.33443e-17)
(0.323174 -0.537647 5.12706e-17)
(0.328749 -0.593313 6.54173e-17)
(0.334696 -0.648812 5.8277e-17)
(0.333297 -0.703342 3.95045e-17)
(0.31557 -0.75669 5.15714e-17)
(0.277755 -0.808922 3.23432e-17)
(0.221038 -0.860372 1.6051e-17)
(0.147676 -0.912267 -1.23391e-17)
(0.0590505 -0.966201 -2.59522e-17)
(-0.042311 -1.0204 -2.14329e-18)
(-0.150682 -1.06775 -1.83094e-17)
(-0.255995 -1.10589 -1.42587e-18)
(-0.347762 -1.13379 -1.38198e-17)
(-0.419187 -1.14625 -1.99747e-17)
(-0.459779 -1.14019 6.14354e-18)
(-0.460103 -1.11351 5.90628e-18)
(-0.417398 -1.06519 1.94788e-17)
(-0.336717 -0.998892 3.94272e-17)
(-0.232313 -0.921488 4.14237e-17)
(-0.12279 -0.840372 5.95525e-17)
(-0.0202973 -0.762063 6.01558e-17)
(0.0721894 -0.689716 4.31166e-17)
(0.157862 -0.622744 5.99554e-17)
(0.241096 -0.561645 5.3477e-17)
(0.322359 -0.510414 3.17789e-17)
(0.486637 -0.710013 1.68911e-17)
(0.539635 -0.566429 2.16865e-17)
(0.608849 -0.520767 1.00493e-17)
(0.648771 -0.411012 2.56174e-17)
(0.686976 -0.360367 1.57921e-17)
(0.71591 -0.288897 1.39783e-17)
(0.748844 -0.245671 3.49466e-17)
(0.787033 -0.207831 3.01342e-17)
(0.837896 -0.180267 1.27673e-17)
(0.898672 -0.157589 -2.33325e-18)
(0.963827 -0.136283 1.42184e-17)
(1.02821 -0.112431 2.53649e-19)
(1.08885 -0.0837205 2.18559e-17)
(1.14497 -0.0501752 7.08403e-18)
(1.19645 -0.0121237 8.96623e-18)
(1.24359 0.0309003 4.43555e-18)
(1.28583 0.0799905 1.88198e-18)
(1.32233 0.135952 1.73559e-18)
(1.35147 0.199009 -2.74377e-18)
(1.37119 0.26892 -8.07468e-18)
(1.37908 0.343718 2.33619e-18)
(1.37267 0.419958 3.85608e-18)
(1.35005 0.493075 -9.36215e-18)
(1.31068 0.55814 -2.64308e-19)
(1.256 0.610767 9.82085e-19)
(1.18948 0.647921 -3.35524e-18)
(1.11591 0.668484 -4.88827e-18)
(1.04042 0.673512 -5.34141e-18)
(0.967854 0.665965 1.75877e-18)
(0.902366 0.649803 -3.56036e-19)
(0.851325 0.63186 -4.71673e-19)
(0.784586 0.64164 2.30103e-18)
(0.734427 0.619504 2.49772e-18)
(0.667642 0.616472 3.49092e-18)
(0.613123 0.584505 6.22218e-18)
(0.547287 0.565111 6.6172e-18)
(0.492268 0.520625 6.99173e-18)
(0.431287 0.483295 5.53766e-18)
(0.380977 0.425532 -4.13883e-19)
(0.329953 0.370616 -4.08392e-18)
(0.289844 0.300584 4.15635e-18)
(0.25355 0.230524 -7.10528e-18)
(0.22785 0.151368 4.42838e-18)
(0.210734 0.0711593 -4.61987e-18)
(0.203466 -0.0126926 -4.47636e-18)
(0.206489 -0.0958361 -2.20876e-17)
(0.218963 -0.179913 -4.13722e-18)
(0.243414 -0.258079 1.26532e-18)
(0.274363 -0.337838 2.98724e-18)
(0.3171 -0.404509 2.54394e-17)
(0.362181 -0.474821 7.42246e-18)
(0.419341 -0.525403 1.05921e-17)
(0.47395 -0.582929 1.09041e-17)
(0.540315 -0.615524 1.44023e-17)
(0.598989 -0.65895 1.06908e-17)
(0.669331 -0.673646 1.36382e-17)
(0.726977 -0.703804 1.18522e-17)
(0.797335 -0.702587 1.53897e-17)
(0.850266 -0.72243 1.46181e-17)
(0.919703 -0.70926 1.947e-17)
(0.973679 -0.724665 1.95329e-17)
(1.04222 -0.737685 1.61411e-17)
(1.11766 -0.741821 1.56981e-17)
(1.19559 -0.733042 1.27908e-17)
(1.27069 -0.708314 1.85929e-17)
(1.33734 -0.666712 1.72373e-17)
(1.39038 -0.609728 1.11793e-17)
(1.42622 -0.540918 1.83405e-17)
(1.44333 -0.46527 2.60588e-17)
(1.44245 -0.388253 2.32981e-17)
(1.42569 -0.314914 9.81468e-18)
(1.39605 -0.24902 1.29342e-17)
(1.3563 -0.192871 1.1712e-18)
(1.30916 -0.146862 7.23034e-18)
(1.25643 -0.110171 2.13907e-18)
(1.19977 -0.0809643 8.87522e-18)
(1.13973 -0.0575536 4.56113e-18)
(1.07684 -0.0382473 8.40421e-18)
(1.01079 -0.0224943 1.45905e-17)
(0.94175 -0.0100116 2.96007e-18)
(0.869158 -0.00163985 9.78082e-18)
(0.793288 0.00200626 1.19333e-17)
(0.713497 -0.000524331 -9.12838e-18)
(0.630447 -0.00989588 -1.06344e-17)
(0.544632 -0.0271044 -8.32142e-18)
(0.459009 -0.0517123 -1.86851e-17)
(0.378429 -0.0834394 -1.13934e-17)
(0.310197 -0.120369 -7.81647e-18)
(0.261383 -0.162452 1.4634e-17)
(0.230805 -0.196242 1.44155e-17)
(0.177625 -0.237715 2.0774e-17)
(0.172232 -0.307189 2.88402e-17)
(0.262657 -0.350115 1.39518e-17)
(0.382356 -0.382002 6.72889e-18)
(0.486834 -0.401511 -2.37106e-19)
(0.556336 -0.416112 -7.43424e-18)
(0.59161 -0.432173 2.55605e-17)
(0.600073 -0.453741 8.37913e-18)
(0.588126 -0.482406 3.54635e-17)
(0.558198 -0.518734 1.02577e-17)
(0.510688 -0.56277 6.99483e-19)
(0.446187 -0.614262 -2.34727e-17)
(0.3654 -0.672191 4.20865e-17)
(0.268611 -0.736103 2.82008e-17)
(0.156863 -0.806917 -1.87356e-17)
(0.0331598 -0.882017 -3.29787e-17)
(-0.0980465 -0.955425 4.91359e-18)
(-0.22801 -1.03004 1.38924e-18)
(-0.344016 -1.1039 2.11471e-17)
(-0.434397 -1.16343 -2.91106e-17)
(-0.485259 -1.19923 -2.15792e-18)
(-0.484375 -1.20262 -9.02162e-18)
(-0.428023 -1.17491 -6.84101e-18)
(-0.325629 -1.12233 1.23745e-17)
(-0.198344 -1.05073 2.43562e-17)
(-0.0668879 -0.971607 2.34441e-17)
(0.0554224 -0.897643 3.34873e-17)
(0.166336 -0.832554 3.43799e-17)
(0.274484 -0.776299 2.962e-17)
(0.384749 -0.734039 3.64689e-17)
(0.539221 -0.840376 2.72558e-17)
(0.636383 -0.726265 1.73946e-17)
(0.725555 -0.684402 2.55799e-17)
(0.808052 -0.583575 1.89004e-17)
(0.867217 -0.5209 2.41078e-17)
(0.922067 -0.438744 1.08341e-17)
(0.970333 -0.369317 8.0811e-18)
(1.01297 -0.30668 2.17963e-17)
(1.05675 -0.253955 1.3901e-17)
(1.10207 -0.210266 1.73008e-17)
(1.14779 -0.171875 1.92607e-17)
(1.19343 -0.137129 1.78808e-17)
(1.23737 -0.102696 2.07554e-17)
(1.27926 -0.0666319 1.78264e-18)
(1.31802 -0.0270427 1.18358e-17)
(1.35346 0.0171431 7.14432e-18)
(1.38479 0.0668717 1.17952e-17)
(1.41104 0.12282 1.01684e-17)
(1.4299 0.1859 1.46939e-17)
(1.43876 0.254879 -8.34935e-18)
(1.43491 0.327946 -7.65474e-18)
(1.41595 0.401444 2.35713e-18)
(1.38066 0.4707 -6.68838e-18)
(1.32963 0.530927 1.72387e-18)
(1.26549 0.578194 -2.91191e-18)
(1.19248 0.610101 -3.57949e-18)
(1.1155 0.626116 -2.94612e-18)
(1.03931 0.627549 -2.14198e-18)
(0.968371 0.617225 -3.35749e-18)
(0.906302 0.598969 1.90863e-18)
(0.859735 0.580064 1.02602e-18)
(0.797053 0.592385 -1.81045e-18)
(0.751751 0.570918 2.2792e-19)
(0.689251 0.570704 1.19518e-20)
(0.639133 0.540685 3.45673e-18)
(0.577419 0.52465 7.35521e-18)
(0.526072 0.483308 9.28108e-18)
(0.468582 0.449944 1.48597e-17)
(0.421094 0.396252 9.15576e-18)
(0.37269 0.345878 -7.80319e-18)
(0.33466 0.280456 -3.04034e-18)
(0.300174 0.215289 5.72382e-18)
(0.275521 0.140859 -8.11822e-18)
(0.259176 0.0656342 -2.83638e-18)
(0.252226 -0.0133524 -1.73481e-17)
(0.255105 -0.0915594 -4.89541e-18)
(0.267195 -0.170752 2.27528e-17)
(0.290818 -0.244192 6.7905e-18)
(0.320542 -0.319009 1.76542e-17)
(0.361124 -0.380961 2.03559e-17)
(0.404188 -0.446518 6.58852e-18)
(0.458263 -0.492584 1.49059e-17)
(0.509992 -0.54609 1.53992e-17)
(0.572415 -0.574621 7.70222e-18)
(0.627284 -0.615095 1.05956e-17)
(0.693195 -0.626347 1.24589e-17)
(0.746258 -0.654849 1.42473e-17)
(0.812197 -0.650829 1.98999e-17)
(0.860117 -0.670331 2.1311e-17)
(0.925491 -0.654766 2.90282e-17)
(0.975066 -0.671429 2.92055e-17)
(1.04032 -0.686841 2.16469e-17)
(1.11441 -0.694105 2.62801e-17)
(1.19354 -0.689377 1.4303e-17)
(1.27277 -0.669794 2.14331e-17)
(1.34687 -0.634206 7.9252e-18)
(1.41066 -0.583522 1.9512e-17)
(1.45982 -0.520681 2.33639e-17)
(1.49181 -0.450227 2.7114e-17)
(1.5063 -0.377504 1.70242e-17)
(1.50492 -0.307689 2.18837e-17)
(1.49077 -0.244704 6.69156e-18)
(1.46734 -0.190792 3.85599e-18)
(1.43814 -0.145909 7.74379e-18)
(1.40561 -0.108883 6.90492e-18)
(1.3716 -0.0772974 1.00444e-17)
(1.33609 -0.0496617 8.66649e-18)
(1.29936 -0.0241659 1.20173e-17)
(1.25994 -0.00125539 7.99152e-18)
(1.21838 0.019612 2.25972e-18)
(1.17284 0.036227 1.2194e-17)
(1.12563 0.0493303 1.22123e-17)
(1.07454 0.0560965 1.01634e-17)
(1.02469 0.0593078 3.86096e-18)
(0.972387 0.0559074 6.81681e-18)
(0.927225 0.051863 8.09173e-18)
(0.880618 0.0416888 8.25874e-18)
(0.852465 0.0364062 -2.95279e-18)
(0.813587 0.0208761 1.20667e-18)
(0.833782 0.0235507 2.09478e-18)
(0.751086 -0.00110904 9.31163e-18)
(0.627971 -0.0833401 1.34795e-17)
(0.525407 -0.162773 4.22307e-17)
(0.467729 -0.229805 2.09771e-17)
(0.462977 -0.280806 5.71194e-18)
(0.496819 -0.316914 -1.45798e-17)
(0.54614 -0.340409 -5.63252e-18)
(0.591695 -0.354715 5.61313e-19)
(0.622007 -0.363923 -6.26464e-17)
(0.630994 -0.372545 -4.7811e-17)
(0.615867 -0.385058 -7.2194e-18)
(0.57629 -0.404442 1.773e-17)
(0.512799 -0.432482 4.69133e-17)
(0.427481 -0.470551 -1.04809e-16)
(0.324024 -0.519708 -9.95397e-17)
(0.208367 -0.581541 -8.20045e-17)
(0.086815 -0.656221 -2.45445e-17)
(-0.0378621 -0.737515 -1.79071e-17)
(-0.161765 -0.82634 2.39032e-17)
(-0.280162 -0.923744 1.85952e-17)
(-0.386744 -1.01793 5.71572e-18)
(-0.461105 -1.10024 4.5006e-18)
(-0.476636 -1.15754 -9.79955e-18)
(-0.424084 -1.17354 -1.9009e-17)
(-0.313246 -1.14313 1.99296e-17)
(-0.163027 -1.0769 4.55307e-18)
(-0.00164272 -0.998029 2.42684e-17)
(0.144569 -0.926172 1.47696e-19)
(0.276243 -0.871017 3.3635e-17)
(0.409938 -0.841328 1.22149e-17)
(0.474428 -0.809055 2.16385e-17)
(0.630721 -0.760991 1.7986e-17)
(0.735477 -0.740547 2.0738e-17)
(0.859563 -0.680582 2.32675e-17)
(0.952948 -0.61893 1.69808e-17)
(1.03122 -0.554053 7.63597e-18)
(1.09851 -0.477678 1.2078e-17)
(1.1518 -0.404889 1.05936e-17)
(1.19519 -0.335183 1.38889e-17)
(1.23243 -0.273131 1.19786e-17)
(1.26542 -0.218376 1.55313e-17)
(1.29622 -0.171408 1.43593e-17)
(1.32534 -0.129121 1.9778e-17)
(1.35353 -0.088278 -1.30121e-18)
(1.38056 -0.0464011 7.93472e-18)
(1.40598 -0.00179059 -1.56691e-18)
(1.42863 0.0472928 1.7706e-17)
(1.44694 0.102204 8.6839e-18)
(1.45878 0.163548 6.61632e-18)
(1.46111 0.230708 4.04629e-18)
(1.4507 0.30159 -2.32269e-18)
(1.42537 0.372667 2.06922e-18)
(1.38427 0.43932 -3.71957e-18)
(1.32856 0.496833 -1.01782e-20)
(1.26139 0.541403 3.34379e-18)
(1.18719 0.570802 2.91645e-18)
(1.11068 0.584605 7.2209e-18)
(1.03639 0.584066 8.19985e-20)
(0.968491 0.571919 6.53971e-18)
(0.910139 0.552062 5.60203e-18)
(0.867485 0.532208 8.08313e-18)
(0.809218 0.546717 1.38283e-18)
(0.767961 0.525982 1.60174e-18)
(0.709901 0.52822 -3.27258e-18)
(0.66356 0.500151 -3.43824e-18)
(0.605962 0.487015 -2.15019e-18)
(0.557881 0.448678 8.62344e-18)
(0.503819 0.418755 1.39487e-17)
(0.458871 0.368861 1.58285e-17)
(0.413028 0.32254 4.94851e-19)
(0.376874 0.261437 -7.04919e-18)
(0.344313 0.200836 9.27408e-18)
(0.320669 0.13092 9.53977e-18)
(0.305116 0.060401 7.92678e-19)
(0.298489 -0.013923 -2.40621e-18)
(0.301212 -0.0874369 1.38715e-17)
(0.313012 -0.16197 1.45269e-17)
(0.335704 -0.230938 3.73743e-18)
(0.36417 -0.300959 2.27625e-17)
(0.402532 -0.358594 1.66604e-17)
(0.443769 -0.419611 1.3536e-17)
(0.494808 -0.461745 6.72254e-18)
(0.543959 -0.511443 5.91966e-18)
(0.6025 -0.536486 1.48962e-17)
(0.654091 -0.574141 2.30714e-17)
(0.715536 -0.582397 2.1474e-17)
(0.764839 -0.609278 2.89403e-17)
(0.826136 -0.602742 3.17506e-17)
(0.870019 -0.621897 3.6009e-17)
(0.930921 -0.604137 4.18156e-17)
(0.976689 -0.622111 4.03912e-17)
(1.03832 -0.639449 3.69492e-17)
(1.10947 -0.648847 3.62155e-17)
(1.1869 -0.646427 3.01836e-17)
(1.26599 -0.629452 2.64957e-17)
(1.34175 -0.596889 1.64931e-17)
(1.40925 -0.549558 2.08504e-17)
(1.46402 -0.490265 1.73571e-17)
(1.50317 -0.423429 2.19547e-17)
(1.52589 -0.354342 1.70677e-17)
(1.53373 -0.288074 1.85476e-17)
(1.52978 -0.228367 1.42709e-17)
(1.51804 -0.177 1.97292e-17)
(1.50222 -0.13345 1.0778e-17)
(1.4851 -0.0962415 3.08728e-17)
(1.46816 -0.0626778 2.01972e-17)
(1.45126 -0.0317313 1.08879e-17)
(1.43427 -0.00143407 1.3821e-17)
(1.41567 0.0265696 1.37238e-17)
(1.39637 0.0540413 1.00246e-17)
(1.37433 0.0769161 1.16849e-17)
(1.35358 0.0997186 7.75917e-18)
(1.33011 0.115773 3.60689e-19)
(1.31318 0.135962 9.43231e-18)
(1.29213 0.147426 3.81061e-18)
(1.2863 0.172034 1.98475e-18)
(1.26871 0.182227 1.72059e-17)
(1.28266 0.220988 1.08384e-17)
(1.26086 0.230949 1.22643e-17)
(1.30989 0.293598 7.91317e-18)
(1.2626 0.300022 -2.40096e-18)
(1.18755 0.268653 5.24908e-18)
(1.10123 0.222893 6.3857e-18)
(1.01149 0.173254 2.71528e-17)
(0.926992 0.123491 1.93453e-17)
(0.85479 0.0754881 3.19169e-17)
(0.798436 0.0320233 5.24728e-17)
(0.757242 -0.00444598 8.17515e-18)
(0.726891 -0.0328091 5.53475e-17)
(0.700938 -0.0535689 4.49014e-17)
(0.672115 -0.0679148 2.14237e-17)
(0.633926 -0.0804858 4.99287e-17)
(0.581999 -0.0957377 1.57653e-17)
(0.514127 -0.115986 -6.55784e-17)
(0.430311 -0.144314 -8.96732e-18)
(0.332643 -0.184152 -4.15289e-17)
(0.224494 -0.23763 -2.98101e-17)
(0.111016 -0.305922 -5.75164e-17)
(-0.00402414 -0.38745 -1.22202e-16)
(-0.113113 -0.483117 -7.16827e-17)
(-0.20581 -0.588476 3.7659e-17)
(-0.28258 -0.697423 5.50523e-17)
(-0.353475 -0.80509 3.01571e-18)
(-0.409373 -0.907888 -6.09494e-17)
(-0.409159 -0.99343 1.97201e-17)
(-0.321005 -1.02327 4.32902e-18)
(-0.165172 -0.9817 4.32534e-17)
(0.011329 -0.903078 2.36982e-19)
(0.177418 -0.829031 3.22893e-17)
(0.32996 -0.792013 1.58686e-17)
(0.298155 -0.66202 1.33673e-17)
(0.498571 -0.661738 1.48644e-17)
(0.639473 -0.674617 1.33083e-17)
(0.765977 -0.67676 1.5081e-17)
(0.90067 -0.63871 1.4169e-17)
(1.00896 -0.597719 4.04389e-18)
(1.09965 -0.542236 8.47122e-18)
(1.17505 -0.475118 4.81225e-18)
(1.23323 -0.404058 1.42356e-17)
(1.27691 -0.334935 -5.40053e-18)
(1.31027 -0.270263 7.47656e-19)
(1.33703 -0.212246 -1.34312e-17)
(1.35983 -0.16106 1.62425e-17)
(1.38061 -0.114345 7.36704e-18)
(1.40059 -0.069425 1.03468e-17)
(1.41968 -0.0237713 1.12304e-17)
(1.43698 0.0249532 1.20166e-17)
(1.45093 0.0785117 1.27749e-17)
(1.45907 0.137702 8.60953e-18)
(1.45841 0.202923 9.62812e-18)
(1.44574 0.271649 5.99259e-18)
(1.41851 0.340851 9.48222e-18)
(1.37606 0.405856 8.82832e-18)
(1.31972 0.461897 1.46906e-17)
(1.25277 0.505074 1.77294e-17)
(1.17963 0.533089 7.17109e-18)
(1.10499 0.545467 1.08573e-17)
(1.03329 0.54345 8.58635e-19)
(0.968631 0.529869 1.46648e-17)
(0.913814 0.508794 7.08325e-18)
(0.87466 0.48826 1.31423e-17)
(0.820656 0.504333 9.04445e-18)
(0.783054 0.484468 8.74258e-18)
(0.729203 0.4886 4.26414e-18)
(0.686386 0.462531 -1.02585e-18)
(0.632744 0.451835 -7.59688e-18)
(0.587769 0.416413 -6.73023e-18)
(0.537041 0.389541 1.41902e-18)
(0.494506 0.343203 5.3458e-18)
(0.451118 0.300585 1.20302e-17)
(0.416669 0.243484 -1.1073e-18)
(0.386037 0.187174 5.91233e-18)
(0.363414 0.121537 8.38834e-18)