/*--------------------------------*- C++ -*----------------------------------*\
| =========                 |                                                 |
| \\      /  F ield         | OpenFOAM: The Open Source CFD Toolbox           |
|  \\    /   O peration     | Version:  3.0.1                                 |
|   \\  /    A nd           | Web:      www.OpenFOAM.org                      |
|    \\/     M anipulation  |                                                 |
\*---------------------------------------------------------------------------*/
FoamFile
{
    version     2.0;
    format      ascii;
    class       volScalarField;
    location    "103.846855434881263";
    object      p;
}
// * * * * * * * * * * * * * * * * * * * * * * * * * * * * * * * * * * * * * //

dimensions      [0 2 -2 0 0 0 0];

internalField   nonuniform List<scalar> 
8400
(
-1.03663
-1.03556
-1.03697
-1.04062
-1.04621
-1.0536
-1.06213
-1.0709
-1.08043
-1.09056
-1.10118
-1.11186
-1.12192
-1.13039
-1.13609
-1.13772
-1.13346
-1.12196
-1.10198
-1.07303
-1.0352
-0.988582
-0.933479
-0.870239
-0.799267
-0.721301
-0.637779
-0.55112
-0.464935
-0.383175
-0.306652
-0.231032
-0.150204
-0.0702551
0.0114864
0.0900573
0.167506
0.239567
0.307647
0.368368
0.422363
0.46738
0.503491
0.52957
0.545343
0.550639
0.54552
0.530348
0.505274
0.47162
0.429207
0.380569
0.324995
0.265991
0.202237
0.137949
0.0713137
0.00705504
-0.0571806
-0.115699
-0.1743
-0.23597
-0.299381
-0.360538
-0.415911
-0.463183
-0.501071
-0.529
-0.546734
-0.55425
-0.551894
-0.540767
-0.521973
-0.49705
-0.468046
-0.437262
-0.406998
-0.379127
-0.355127
-0.335343
-0.319525
-0.307058
-0.297071
-0.288849
-0.282135
-0.278089
-0.277678
-0.281835
-0.291614
-0.304012
-0.317395
-0.331005
-0.343664
-0.354447
-0.363229
-0.371545
-0.381929
-0.398409
-0.423282
-0.45666
-0.496719
-0.542072
-0.59253
-0.648135
-0.707875
-0.769665
-0.830838
-0.888661
-0.940716
-0.985153
-1.02081
-1.04729
-1.0652
-1.07384
-1.07485
-1.07024
-1.06253
-1.05399
-1.04635
-1.04056
-1.03977
-1.0314
-1.02612
-1.02496
-1.02764
-1.03329
-1.04073
-1.04937
-1.05831
-1.06803
-1.07858
-1.08997
-1.10173
-1.1131
-1.12285
-1.1295
-1.13148
-1.12636
-1.1117
-1.0865
-1.05038
-1.00357
-0.946419
-0.879405
-0.803128
-0.71858
-0.627719
-0.534108
-0.44252
-0.356393
-0.278295
-0.205416
-0.129087
-0.05348
0.0240052
0.0991648
0.17347
0.243222
0.309208
0.368467
0.421217
0.465429
0.500931
0.526678
0.542297
0.547611
0.542692
0.527867
0.503416
0.470536
0.429343
0.382087
0.328494
0.271628
0.210758
0.149545
0.0866551
0.0261499
-0.0344106
-0.0909598
-0.151212
-0.216314
-0.283902
-0.350148
-0.410329
-0.461111
-0.500756
-0.528501
-0.544096
-0.547748
-0.540184
-0.52251
-0.496732
-0.465491
-0.431753
-0.398464
-0.368066
-0.342088
-0.322571
-0.307495
-0.29694
-0.289582
-0.284209
-0.280533
-0.279243
-0.2808
-0.285937
-0.294364
-0.304416
-0.313785
-0.321244
-0.329462
-0.340905
-0.357456
-0.376485
-0.392676
-0.404741
-0.41806
-0.4396
-0.471017
-0.510843
-0.559146
-0.615292
-0.677328
-0.742526
-0.807928
-0.870373
-0.927194
-0.97672
-1.01815
-1.05118
-1.07567
-1.09134
-1.09971
-1.10288
-1.09884
-1.08968
-1.07754
-1.06437
-1.05156
-1.05829
-1.04444
-1.03193
-1.02354
-1.01902
-1.01918
-1.02252
-1.02849
-1.0358
-1.0442
-1.05343
-1.06375
-1.07502
-1.08667
-1.09758
-1.10623
-1.11073
-1.10906
-1.09896
-1.07734
-1.04302
-0.995869
-0.936195
-0.864714
-0.782529
-0.691368
-0.594047
-0.494821
-0.398706
-0.309788
-0.23439
-0.166221
-0.0961757
-0.0261462
0.0452249
0.115468
0.184786
0.250776
0.313169
0.369864
0.420336
0.463007
0.49729
0.522338
0.53761
0.542944
0.538437
0.52433
0.501116
0.469737
0.430798
0.386024
0.335885
0.282586
0.226391
0.169732
0.112412
0.0568915
0.00182259
-0.050825
-0.108899
-0.176461
-0.247937
-0.319
-0.384524
-0.440319
-0.483767
-0.513506
-0.529055
-0.530712
-0.519578
-0.49765
-0.467949
-0.434134
-0.399943
-0.36859
-0.342282
-0.322048
-0.307647
-0.298185
-0.291764
-0.286845
-0.282396
-0.278185
-0.27458
-0.272842
-0.273881
-0.276329
-0.279917
-0.28451
-0.290742
-0.298826
-0.307792
-0.319673
-0.335311
-0.354913
-0.378398
-0.40653
-0.440616
-0.48144
-0.529472
-0.583933
-0.644463
-0.709811
-0.777117
-0.842743
-0.903621
-0.957729
-1.0043
-1.04345
-1.07553
-1.10069
-1.11888
-1.12992
-1.13174
-1.1276
-1.11822
-1.10542
-1.09071
-1.07482
-1.04812
-1.04123
-1.03054
-1.02067
-1.01063
-1.00384
-0.999976
-1.00049
-1.0041
-1.01053
-1.0186
-1.02814
-1.03876
-1.05024
-1.06164
-1.07145
-1.07759
-1.07789
-1.07017
-1.05093
-1.01786
-0.970223
-0.908289
-0.833129
-0.746581
-0.651274
-0.550757
-0.449513
-0.352522
-0.264295
-0.192871
-0.129605
-0.0653812
-0.000535415
0.0652692
0.130752
0.195288
0.25742
0.316128
0.370049
0.418034
0.458961
0.491842
0.516069
0.530932
0.5363
0.532289
0.519039
0.497258
0.46759
0.431134
0.389065
0.342482
0.292857
0.241155
0.188904
0.136667
0.0857572
0.0358157
-0.0127071
-0.0673237
-0.134204
-0.206369
-0.279212
-0.347588
-0.406913
-0.453771
-0.485996
-0.502621
-0.503895
-0.491346
-0.467796
-0.437165
-0.403887
-0.37208
-0.344825
-0.323696
-0.308711
-0.298567
-0.291192
-0.284328
-0.276365
-0.266075
-0.25404
-0.242407
-0.232527
-0.224304
-0.218363
-0.215034
-0.216531
-0.226675
-0.244664
-0.266807
-0.292213
-0.320117
-0.35083
-0.384864
-0.422577
-0.464184
-0.510089
-0.560432
-0.615638
-0.673993
-0.734052
-0.793506
-0.850023
-0.901571
-0.946842
-0.985485
-1.01771
-1.0443
-1.06604
-1.08274
-1.0935
-1.09784
-1.09656
-1.09052
-1.0805
-1.06847
-1.05703
-0.953665
-0.960996
-0.964309
-0.96608
-0.963912
-0.961453
-0.958538
-0.958241
-0.960225
-0.965355
-0.972702
-0.981997
-0.992561
-1.00411
-1.01592
-1.02666
-1.0343
-1.03629
-1.02991
-1.01301
-0.981704
-0.934467
-0.871653
-0.794646
-0.705951
-0.608909
-0.507543
-0.406421
-0.310585
-0.224775
-0.157503
-0.0991039
-0.0399696
0.0200988
0.0810994
0.142216
0.202543
0.261061
0.316425
0.367675
0.413339
0.452561
0.4841
0.507515
0.521982
0.52739
0.523864
0.511469
0.491052
0.46307
0.428932
0.389462
0.346092
0.299891
0.25212
0.203884
0.15599
0.109296
0.0637748
0.0193339
-0.0316874
-0.0962693
-0.167224
-0.239816
-0.308873
-0.36967
-0.41831
-0.452029
-0.469455
-0.470827
-0.458097
-0.43477
-0.405431
-0.374896
-0.347265
-0.325082
-0.308999
-0.297921
-0.289573
-0.281294
-0.270905
-0.257347
-0.241074
-0.22431
-0.210191
-0.20049
-0.195764
-0.196219
-0.202428
-0.213729
-0.228011
-0.245173
-0.270181
-0.304085
-0.34493
-0.389903
-0.436897
-0.484757
-0.532363
-0.57954
-0.627592
-0.675845
-0.722679
-0.766522
-0.808664
-0.848904
-0.884518
-0.912618
-0.93315
-0.948061
-0.959736
-0.969763
-0.977691
-0.981858
-0.98158
-0.978396
-0.973391
-0.962688
-0.95345
-0.949952
-0.754017
-0.786706
-0.816391
-0.841733
-0.860695
-0.874503
-0.884144
-0.891871
-0.899209
-0.90735
-0.916736
-0.927358
-0.93904
-0.951454
-0.964135
-0.975992
-0.985172
-0.989052
-0.984729
-0.969423
-0.940123
-0.894279
-0.831947
-0.75471
-0.665544
-0.568308
-0.467361
-0.367447
-0.273767
-0.190991
-0.127709
-0.0739447
-0.01942
0.0362678
0.0929642
0.150104
0.206649
0.261825
0.314153
0.362874
0.406407
0.443998
0.474296
0.49693
0.511024
0.516471
0.513392
0.501818
0.48265
0.456286
0.424273
0.387242
0.34677
0.303707
0.259442
0.214829
0.170778
0.127911
0.0863254
0.0457519
-0.00186423
-0.0635869
-0.132392
-0.203707
-0.272253
-0.333148
-0.382213
-0.416328
-0.433929
-0.435378
-0.423064
-0.401049
-0.374324
-0.347728
-0.324927
-0.3076
-0.295383
-0.286297
-0.277646
-0.267
-0.253107
-0.23639
-0.218995
-0.204012
-0.194142
-0.19154
-0.196875
-0.210436
-0.232194
-0.260281
-0.291122
-0.321325
-0.355916
-0.394107
-0.434767
-0.477347
-0.522033
-0.568972
-0.617543
-0.666372
-0.714399
-0.761402
-0.805101
-0.839766
-0.863985
-0.877402
-0.879155
-0.870332
-0.858672
-0.846586
-0.832532
-0.816827
-0.801449
-0.78704
-0.771438
-0.753088
-0.734316
-0.721775
-0.717628
-0.727907
-0.504504
-0.557602
-0.61241
-0.663321
-0.708161
-0.74525
-0.775545
-0.799488
-0.819256
-0.835978
-0.851339
-0.865988
-0.880547
-0.895084
-0.909447
-0.922858
-0.933734
-0.939624
-0.937476
-0.92413
-0.896863
-0.852977
-0.791966
-0.715543
-0.626943
-0.53042
-0.430646
-0.332613
-0.241651
-0.162183
-0.102736
-0.053214
-0.00290161
0.0487802
0.101558
0.155046
0.208145
0.260217
0.309757
0.356082
0.397629
0.433657
0.462796
0.484678
0.498416
0.503896
0.501229
0.49044
0.472429
0.447622
0.417572
0.382831
0.345003
0.304829
0.263736
0.222411
0.181825
0.14241
0.104375
0.067302
0.0229358
-0.0357076
-0.101866
-0.171313
-0.238707
-0.298959
-0.347657
-0.38149
-0.398859
-0.400362
-0.388811
-0.368683
-0.345127
-0.322705
-0.304346
-0.290758
-0.280785
-0.2721
-0.262388
-0.250225
-0.235887
-0.221281
-0.209503
-0.203491
-0.20512
-0.215063
-0.2329
-0.257826
-0.288609
-0.322595
-0.373723
-0.404759
-0.443103
-0.484078
-0.528124
-0.575732
-0.62698
-0.681151
-0.737139
-0.793115
-0.846201
-0.892527
-0.928096
-0.950109
-0.955512
-0.944197
-0.921162
-0.887515
-0.845248
-0.790754
-0.727719
-0.668499
-0.62282
-0.588156
-0.556522
-0.523159
-0.489116
-0.462229
-0.450166
-0.463986
-0.292103
-0.345643
-0.407979
-0.47208
-0.534682
-0.591897
-0.642708
-0.685801
-0.721845
-0.751599
-0.776647
-0.798408
-0.818047
-0.836327
-0.85347
-0.869103
-0.881984
-0.88995
-0.890033
-0.878993
-0.853953
-0.812144
-0.752913
-0.6779
-0.590485
-0.495251
-0.397176
-0.301516
-0.213652
-0.137653
-0.0818918
-0.0362375
0.0102468
0.0582551
0.10745
0.157565
0.207496
0.256677
0.303632
0.347687
0.387362
0.421891
0.44993
0.471085
0.484478
0.489984
0.487699
0.477661
0.46074
0.437427
0.40921
0.376612
0.341216
0.30371
0.265508
0.227188
0.18973
0.153435
0.118583
0.0846614
0.0434098
-0.0120323
-0.0752274
-0.142405
-0.208251
-0.267462
-0.315406
-0.348655
-0.36567
-0.367321
-0.356782
-0.338798
-0.318447
-0.299789
-0.284915
-0.273741
-0.26476
-0.25589
-0.24582
-0.234492
-0.223703
-0.216102
-0.214874
-0.221725
-0.237592
-0.261434
-0.292725
-0.329497
-0.372118
-0.416809
-0.462593
-0.494216
-0.527645
-0.567483
-0.614533
-0.667708
-0.725969
-0.786488
-0.848533
-0.909838
-0.967152
-1.01657
-1.05416
-1.07653
-1.08025
-1.06001
-1.00819
-0.936804
-0.856552
-0.773724
-0.688445
-0.605934
-0.532778
-0.467077
-0.405946
-0.352647
-0.308352
-0.272329
-0.250837
-0.256379
-0.145733
-0.185106
-0.238904
-0.301184
-0.368606
-0.436262
-0.501087
-0.560185
-0.611972
-0.656096
-0.69314
-0.724473
-0.751444
-0.775223
-0.796471
-0.815209
-0.830607
-0.84087
-0.843297
-0.834688
-0.811813
-0.77239
-0.71523
-0.64197
-0.556147
-0.462609
-0.366639
-0.273729
-0.189214
-0.116765
-0.0645285
-0.0224125
0.0205855
0.0652206
0.111121
0.158106
0.205099
0.251576
0.296116
0.338025
0.375919
0.409008
0.435991
0.456443
0.469498
0.47502
0.473095
0.463773
0.447893
0.426008
0.399509
0.368917
0.335774
0.300742
0.265193
0.229627
0.195004
0.161531
0.129539
0.0984657
0.0601877
0.00799372
-0.052041
-0.11666
-0.180673
-0.238606
-0.285616
-0.318196
-0.334901
-0.336858
-0.327513
-0.311727
-0.294322
-0.27875
-0.266364
-0.256638
-0.248155
-0.239539
-0.230673
-0.222684
-0.218264
-0.219739
-0.229596
-0.247647
-0.274286
-0.306443
-0.344726
-0.384988
-0.429792
-0.472629
-0.519023
-0.557482
-0.595023
-0.637541
-0.685704
-0.738225
-0.793942
-0.851758
-0.910134
-0.966658
-1.01805
-1.0605
-1.09006
-1.10312
-1.0968
-1.06951
-1.0219
-0.957385
-0.87862
-0.784357
-0.674772
-0.562352
-0.462787
-0.385324
-0.323541
-0.268384
-0.217547
-0.173364
-0.139839
-0.127994
-0.0593807
-0.0790861
-0.116628
-0.166727
-0.227138
-0.29468
-0.3647
-0.433053
-0.496536
-0.553222
-0.602406
-0.644483
-0.680448
-0.711364
-0.738087
-0.760964
-0.779568
-0.792524
-0.797486
-0.7914
-0.771012
-0.733949
-0.679022
-0.607748
-0.523818
-0.432296
-0.338755
-0.248869
-0.167855
-0.0989714
-0.0500927
-0.0112188
0.0285933
0.0701237
0.112985
0.157052
0.201303
0.245239
0.287508
0.327384
0.363577
0.39528
0.421241
0.44101
0.453732
0.45926
0.457675
0.449038
0.434158
0.413633
0.388749
0.360036
0.328992
0.296264
0.263163
0.230125
0.198078
0.167164
0.13775
0.109258
0.0738094
0.0248518
-0.0319186
-0.0937752
-0.155744
-0.212235
-0.258222
-0.290135
-0.306632
-0.309047
-0.301002
-0.287339
-0.272492
-0.259345
-0.248727
-0.240036
-0.232249
-0.224904
-0.218802
-0.215783
-0.218395
-0.227985
-0.245722
-0.270004
-0.300385
-0.333108
-0.36841
-0.401575
-0.432805
-0.458619
-0.488746
-0.522521
-0.560538
-0.604657
-0.653604
-0.704789
-0.756123
-0.806222
-0.853941
-0.897794
-0.935821
-0.965575
-0.984528
-0.990294
-0.980904
-0.954917
-0.911658
-0.851658
-0.776926
-0.691585
-0.602045
-0.51089
-0.420806
-0.339904
-0.265873
-0.202308
-0.151898
-0.111604
-0.0787822
-0.0582206
-0.00675056
-0.0152663
-0.035822
-0.0706608
-0.118348
-0.17656
-0.24301
-0.313203
-0.382543
-0.447918
-0.507329
-0.559805
-0.605367
-0.644535
-0.67791
-0.705947
-0.728536
-0.744707
-0.752495
-0.749074
-0.731311
-0.696816
-0.644248
-0.575153
-0.493362
-0.404121
-0.313268
-0.226594
-0.149154
-0.0838005
-0.0381102
-0.00221188
0.0346793
0.073344
0.113391
0.154731
0.196408
0.237946
0.278066
0.316013
0.350577
0.380944
0.405911
0.425013
0.437406
0.44293
0.441669
0.433688
0.419769
0.400535
0.377172
0.350224
0.321148
0.290572
0.259737
0.229023
0.199323
0.170738
0.143655
0.117508
0.0847407
0.0389614
-0.0145143
-0.0734793
-0.133243
-0.188169
-0.23308
-0.264353
-0.280743
-0.283724
-0.277015
-0.265312
-0.252631
-0.241406
-0.232202
-0.224581
-0.218061
-0.213006
-0.210589
-0.212812
-0.221203
-0.23599
-0.256933
-0.281858
-0.308715
-0.333654
-0.355943
-0.372616
-0.385359
-0.393371
-0.403905
-0.424685
-0.454947
-0.49202
-0.532394
-0.573258
-0.612959
-0.650741
-0.68608
-0.718231
-0.745996
-0.767741
-0.781591
-0.785571
-0.778006
-0.757632
-0.724234
-0.678536
-0.622609
-0.559009
-0.490218
-0.418288
-0.346681
-0.279594
-0.219251
-0.165518
-0.116351
-0.0711948
-0.0330091
-0.00750374
0.0306344
0.0274199
0.0153609
-0.00688049
-0.040623
-0.0860786
-0.142153
-0.206889
-0.276148
-0.345349
-0.411635
-0.472797
-0.527423
-0.575102
-0.615853
-0.64987
-0.677184
-0.697148
-0.708143
-0.707622
-0.692631
-0.660877
-0.610805
-0.544075
-0.46464
-0.377906
-0.28994
-0.206601
-0.132745
-0.0708505
-0.0281787
0.00498511
0.0391907
0.075203
0.112638
0.151424
0.190677
0.229941
0.268019
0.304127
0.337127
0.366208
0.390205
0.408654
0.420718
0.426231
0.425279
0.417926
0.404929
0.386919
0.364989
0.339706
0.312484
0.283922
0.255184
0.22661
0.199057
0.172598
0.147629
0.123617
0.0933833
0.0506895
0.000483049
-0.05552
-0.112965
-0.16623
-0.210024
-0.240687
-0.257041
-0.260648
-0.25525
-0.245305
-0.234466
-0.224851
-0.216995
-0.21069
-0.206026
-0.203817
-0.205044
-0.211514
-0.223155
-0.239292
-0.259332
-0.279369
-0.297026
-0.31145
-0.32019
-0.323059
-0.320429
-0.313963
-0.310811
-0.320401
-0.342045
-0.370382
-0.400637
-0.430315
-0.458645
-0.485724
-0.511611
-0.535884
-0.557388
-0.574647
-0.586015
-0.590163
-0.586012
-0.573057
-0.551208
-0.520858
-0.482617
-0.43733
-0.386296
-0.33139
-0.275253
-0.219952
-0.167224
-0.117955
-0.0729676
-0.0326559
0.00167623
0.0296956
0.0454036
0.0556608
0.0500306
0.0351189
0.0116001
-0.0207089
-0.0638858
-0.118233
-0.181805
-0.250188
-0.319365
-0.386379
-0.448555
-0.504104
-0.552267
-0.592723
-0.625332
-0.649628
-0.664256
-0.666941
-0.654926
-0.625709
-0.578542
-0.514406
-0.437518
-0.353478
-0.268552
-0.188615
-0.118311
-0.0597777
-0.019957
0.0106904
0.0424212
0.075972
0.110975
0.147368
0.184333
0.221435
0.257563
0.291912
0.323409
0.351248
0.3743
0.392107
0.403844
0.409338
0.408679
0.401927
0.38981
0.37296
0.352387
0.328679
0.303206
0.27653
0.249736
0.223135
0.197553
0.173041
0.149996
0.127934
0.100084
0.0603571
0.0133541
-0.0396643
-0.0947157
-0.146246
-0.188893
-0.218965
-0.23532
-0.239577
-0.235417
-0.227036
-0.217812
-0.209652
-0.203191
-0.198379
-0.195945
-0.196372
-0.200356
-0.209984
-0.222533
-0.237833
-0.251797
-0.264025
-0.272017
-0.275011
-0.271856
-0.263358
-0.250506
-0.236306
-0.227555
-0.232159
-0.248977
-0.271628
-0.295321
-0.318095
-0.339885
-0.361125
-0.382085
-0.402492
-0.421682
-0.438543
-0.451687
-0.45979
-0.461596
-0.45631
-0.443275
-0.422285
-0.393351
-0.357235
-0.315147
-0.269033
-0.220888
-0.17289
-0.126709
-0.0839038
-0.0455905
-0.0123257
0.0142217
0.0354306
0.00728521
0.0390825
0.0540104
0.0564513
0.0463001
0.0243066
-0.00687002
-0.0485555
-0.102494
-0.165942
-0.234276
-0.303724
-0.371019
-0.433066
-0.487959
-0.534798
-0.573011
-0.602043
-0.620702
-0.626919
-0.618116
-0.591869
-0.547439
-0.486058
-0.411868
-0.330681
-0.248905
-0.172394
-0.105575
-0.0502882
-0.0131558
0.0151719
0.0446178
0.07588
0.108613
0.14276
0.177562
0.212606
0.246869
0.279532
0.309577
0.336217
0.358349
0.375523
0.386935
0.392402
0.392021
0.38584
0.374564
0.358813
0.339525
0.317312
0.29349
0.268577
0.243586
0.218811
0.195045
0.17232
0.151037
0.130756
0.105142
0.0682451
0.0243522
-0.0256991
-0.0783157
-0.128055
-0.169532
-0.199017
-0.215387
-0.220284
-0.217265
-0.210291
-0.202536
-0.195777
-0.190638
-0.187232
-0.187547
-0.190441
-0.197295
-0.206012
-0.216453
-0.226735
-0.234196
-0.238029
-0.236491
-0.229783
-0.217848
-0.202354
-0.184934
-0.169033
-0.160178
-0.163696
-0.177966
-0.1971
-0.217236
-0.237208
-0.257213
-0.277858
-0.299465
-0.321542
-0.343198
-0.362958
-0.379524
-0.391409
-0.397678
-0.397491
-0.390374
-0.376152
-0.354755
-0.32671
-0.292974
-0.255302
-0.215611
-0.175649
-0.137022
-0.101231
-0.0694148
-0.0430822
-0.0221926
-0.00931581
-0.0740301
-0.0410951
-0.00934448
0.0193625
0.0394812
0.0415411
0.0265986
-0.000303039
-0.041239
-0.0954244
-0.159342
-0.227852
-0.297191
-0.363658
-0.424063
-0.476682
-0.520454
-0.554442
-0.577422
-0.587444
-0.582045
-0.558946
-0.517462
-0.458936
-0.387576
-0.309368
-0.230818
-0.157723
-0.0942988
-0.0421315
-0.00752922
0.0186553
0.0459871
0.075119
0.10573
0.137764
0.170521
0.203606
0.236081
0.267122
0.295766
0.321246
0.34248
0.359033
0.370119
0.375553
0.375434
0.369795
0.359319
0.344609
0.326542
0.30575
0.283485
0.26022
0.236904
0.213822
0.191733
0.170658
0.150989
0.132335
0.108809
0.0745991
0.0337039
-0.0134301
-0.0635949
-0.111508
-0.151796
-0.180683
-0.197067
-0.202567
-0.200589
-0.194897
-0.188498
-0.183169
-0.179645
-0.178978
-0.179816
-0.183707
-0.189995
-0.197174
-0.204083
-0.208672
-0.209098
-0.204793
-0.195187
-0.1815
-0.164359
-0.146067
-0.128166
-0.113661
-0.106368
-0.109951
-0.123038
-0.140841
-0.160157
-0.180144
-0.200898
-0.222914
-0.246468
-0.27178
-0.298018
-0.323635
-0.346786
-0.36596
-0.380322
-0.388973
-0.391392
-0.386564
-0.374269
-0.354733
-0.328883
-0.29855
-0.264991
-0.230613
-0.196473
-0.165042
-0.136986
-0.1142
-0.0957512
-0.0848431
-0.139694
-0.113937
-0.0843428
-0.0549693
-0.0185227
0.0143534
0.0278998
0.0192661
-0.00358596
-0.0428594
-0.0971951
-0.161162
-0.22934
-0.297545
-0.361792
-0.419207
-0.468092
-0.507017
-0.534466
-0.548486
-0.546675
-0.526876
-0.488521
-0.432956
-0.364539
-0.28941
-0.214128
-0.144415
-0.0842781
-0.0350947
-0.00286864
0.0213318
0.0467016
0.0738481
0.102471
0.132517
0.163339
0.194557
0.225319
0.254801
0.282088
0.306443
0.326804
0.342746
0.353506
0.358901
0.359025
0.3539
0.344184
0.330462
0.313557
0.294113
0.273315
0.251588
0.229831
0.208325
0.187792
0.168242
0.150053
0.132882
0.111302
0.0796338
0.0416105
-0.00267895
-0.0503962
-0.0964688
-0.135543
-0.163818
-0.1802
-0.186249
-0.185209
-0.180682
-0.175546
-0.17162
-0.169392
-0.169274
-0.171029
-0.174915
-0.179794
-0.184123
-0.186403
-0.184895
-0.178639
-0.167557
-0.15227
-0.134535
-0.115332
-0.0971371
-0.0806658
-0.0683905
-0.0626446
-0.0664386
-0.0784655
-0.0951417
-0.114444
-0.135359
-0.158139
-0.184242
-0.214832
-0.249439
-0.285884
-0.32203
-0.355947
-0.38679
-0.413433
-0.434826
-0.449197
-0.455101
-0.451771
-0.438918
-0.417992
-0.39025
-0.35849
-0.324098
-0.289303
-0.2562
-0.225203
-0.198894
-0.175474
-0.153414
-0.149991
-0.123499
-0.100495
-0.0818675
-0.0575702
-0.0232654
0.00862593
0.0216458
0.0142028
-0.00950106
-0.0501594
-0.105403
-0.169202
-0.236338
-0.302324
-0.363268
-0.416517
-0.460071
-0.491979
-0.510093
-0.512005
-0.495625
-0.460527
-0.408044
-0.342659
-0.270684
-0.198692
-0.132305
-0.0753373
-0.0289984
0.00100139
0.0233628
0.0469066
0.072199
0.0989606
0.127133
0.156124
0.185561
0.214683
0.242666
0.268639
0.291901
0.311412
0.326753
0.33719
0.342537
0.342887
0.338246
0.329251
0.316468
0.300667
0.282502
0.263083
0.242794
0.222492
0.202456
0.183371
0.165231
0.148393
0.132571
0.112805
0.0835375
0.0482491
0.00671839
-0.038577
-0.0828053
-0.120639
-0.148288
-0.164639
-0.171175
-0.170969
-0.167492
-0.163635
-0.160656
-0.159201
-0.159515
-0.161295
-0.163996
-0.166355
-0.166907
-0.164185
-0.157052
-0.145317
-0.129526
-0.111086
-0.0916658
-0.0726049
-0.0559248
-0.0410843
-0.0303933
-0.0243675
-0.0274772
-0.0399327
-0.058442
-0.080054
-0.104519
-0.134311
-0.171597
-0.216155
-0.265424
-0.316932
-0.368733
-0.41963
-0.468508
-0.513825
-0.553482
-0.584656
-0.60482
-0.611585
-0.605056
-0.58594
-0.556276
-0.518477
-0.474135
-0.426347
-0.374749
-0.325964
-0.275901
-0.232643
-0.186932
-0.148122
-0.0962004
-0.0674453
-0.0539368
-0.0470196
-0.031811
-0.00373367
0.0198359
0.0237858
0.0106708
-0.0174399
-0.0615054
-0.117869
-0.181287
-0.246795
-0.309724
-0.366377
-0.414007
-0.450167
-0.472362
-0.478067
-0.465191
-0.433407
-0.38412
-0.32185
-0.253085
-0.184381
-0.121249
-0.0673271
-0.023693
0.00422615
0.0248835
0.0467242
0.0702808
0.0952962
0.121706
0.148961
0.176703
0.204252
0.230795
0.255496
0.277696
0.296379
0.311131
0.321245
0.326538
0.327094
0.322908
0.314598
0.302706
0.287955
0.271
0.252876
0.233932
0.214991
0.19633
0.178594
0.161753
0.146146
0.131555
0.11348
0.086475
0.0537779
0.0149111
-0.0280092
-0.0703912
-0.106967
-0.133972
-0.150246
-0.157193
-0.157702
-0.155175
-0.152286
-0.150001
-0.148964
-0.149223
-0.150087
-0.150676
-0.149832
-0.14623
-0.13874
-0.127025
-0.111518
-0.0932505
-0.073656
-0.0542446
-0.0366774
-0.02186
-0.00889367
-0.000228494
0.00540732
-0.000641931
-0.0164367
-0.0374802
-0.0629802
-0.0953983
-0.136745
-0.187133
-0.244968
-0.30801
-0.374492
-0.44282
-0.512111
-0.580706
-0.646698
-0.706878
-0.757249
-0.793361
-0.812755
-0.814467
-0.799156
-0.768496
-0.722902
-0.664036
-0.593128
-0.516588
-0.437161
-0.359925
-0.286375
-0.21614
-0.205144
-0.119053
-0.0521965
-0.0195834
-0.0113864
-0.00407248
0.0078791
0.0266763
0.035998
0.0277317
0.00652824
-0.027818
-0.0755129
-0.133174
-0.196133
-0.25937
-0.318287
-0.369265
-0.409289
-0.435429
-0.444926
-0.435626
-0.406936
-0.361095
-0.302036
-0.236515
-0.171082
-0.111123
-0.0601205
-0.0190543
0.00692405
0.0260052
0.0462565
0.0681844
0.091559
0.116308
0.141922
0.168047
0.194089
0.219251
0.242722
0.26389
0.281766
0.29594
0.305733
0.310964
0.311709
0.30795
0.300289
0.289242
0.275486
0.259675
0.242766
0.225082
0.207417
0.190046
0.173564
0.157914
0.14343
0.12997
0.113472
0.0885905
0.0583395
0.0220308
-0.018573
-0.0591114
-0.0944236
-0.120752
-0.136906
-0.144163
-0.145264
-0.143633
-0.141409
-0.139463
-0.138463
-0.138034
-0.137182
-0.135133
-0.130807
-0.123055
-0.111494
-0.0966234
-0.0791902
-0.0602295
-0.041082
-0.0234244
-0.0081302
0.0048137
0.0141122
0.0173017
0.0187272
0.00964808
-0.00711499
-0.0292088
-0.0577825
-0.0948348
-0.141811
-0.198272
-0.262157
-0.331335
-0.404219
-0.479754
-0.557329
-0.635839
-0.713297
-0.786154
-0.849491
-0.898068
-0.92837
-0.938492
-0.929074
-0.900846
-0.854868
-0.791979
-0.715239
-0.631299
-0.544978
-0.464978
-0.367945
-0.344757
-0.301378
-0.209105
-0.0980604
-0.0460717
0.00226418
0.0260595
0.0341628
0.0446046
0.0528303
0.0463822
0.0279874
-0.000521232
-0.0407491
-0.0919855
-0.150908
-0.212846
-0.2728
-0.326277
-0.369631
-0.399458
-0.412657
-0.406964
-0.381679
-0.338965
-0.283159
-0.22089
-0.158695
-0.101819
-0.0536091
-0.0149786
0.00919101
0.0268171
0.0455871
0.0659854
0.0878149
0.110999
0.135061
0.159648
0.184245
0.208082
0.230367
0.250532
0.267621
0.281228
0.290703
0.295866
0.29678
0.29342
0.286374
0.276127
0.263315
0.248581
0.232815
0.216311
0.199845
0.183684
0.168361
0.153802
0.14035
0.127935
0.112908
0.0900096
0.0620611
0.028195
-0.0101556
-0.0488686
-0.0829104
-0.108524
-0.124509
-0.131959
-0.133576
-0.132658
-0.130771
-0.128886
-0.127525
-0.125719
-0.122701
-0.117876
-0.109984
-0.0984621
-0.0839944
-0.0674206
-0.0494043
-0.0312612
-0.0144449
0.000202869
0.0125487
0.0208937
0.0236536
0.0229351
0.0221289
0.0128812
-0.00192965
-0.0212665
-0.0460759
-0.0779474
-0.120201
-0.170742
-0.22838
-0.291651
-0.359198
-0.429763
-0.502136
-0.574932
-0.646143
-0.712429
-0.769861
-0.814816
-0.844729
-0.858217
-0.855426
-0.836277
-0.801515
-0.751833
-0.690125
-0.620649
-0.548788
-0.482358
-0.4223
-0.376749
-0.311234
-0.259846
-0.182543
-0.11203
-0.0317805
0.0163372
0.0437433
0.0591148
0.0669342
0.0638583
0.0481075
0.0231316
-0.0115922
-0.0569326
-0.111202
-0.170585
-0.230365
-0.285429
-0.33148
-0.364627
-0.381341
-0.379161
-0.357276
-0.317735
-0.265164
-0.206134
-0.147133
-0.093244
-0.0477004
-0.0113785
0.0111053
0.0273899
0.0447827
0.0637452
0.0841175
0.105824
0.128421
0.151545
0.174759
0.197325
0.218468
0.237659
0.253982
0.267034
0.276193
0.28128
0.282345
0.279358
0.272893
0.263403
0.251482
0.237765
0.223072
0.207675
0.192336
0.177307
0.163051
0.149493
0.136997
0.125555
0.111892
0.0908411
0.0650544
0.0335115
-0.00265639
-0.0395748
-0.0723352
-0.0972078
-0.112935
-0.120485
-0.122583
-0.122094
-0.120233
-0.11822
-0.115934
-0.112273
-0.107095
-0.0994169
-0.0880725
-0.0738029
-0.0577403
-0.0403421
-0.0228223
-0.00718698
0.00573151
0.0159998
0.0232314
0.0261369
0.027697
0.0292942
0.0289729
0.022299
0.0122912
-0.00282648
-0.0233197
-0.0495495
-0.0833983
-0.125052
-0.173365
-0.226643
-0.283182
-0.341208
-0.398938
-0.454699
-0.506863
-0.55366
-0.593037
-0.622746
-0.641529
-0.648597
-0.644143
-0.628786
-0.6043
-0.572034
-0.532521
-0.485011
-0.431471
-0.380105
-0.34532
-0.331332
-0.22551
-0.228024
-0.211315
-0.162211
-0.0964523
-0.0299116
0.01955
0.0504699
0.0682751
0.0732093
0.0636192
0.0430007
0.0127679
-0.0271135
-0.0767194
-0.132769
-0.191299
-0.247034
-0.295098
-0.331112
-0.351082
-0.352252
-0.333716
-0.297373
-0.248002
-0.192183
-0.136317
-0.085319
-0.0423154
-0.00817922
0.0127322
0.0277796
0.0438947
0.0615125
0.0805098
0.100821
0.122034
0.143769
0.165658
0.187007
0.207051
0.225299
0.240875
0.253385
0.26223
0.267234
0.268432
0.265794
0.259878
0.251101
0.240021
0.227261
0.213575
0.199219
0.18494
0.170964
0.157691
0.145057
0.133453
0.122916
0.110513
0.0911783
0.0674176
0.0380784
0.00401351
-0.0311441
-0.0626224
-0.0867196
-0.102082
-0.109701
-0.112162
-0.111778
-0.109801
-0.107335
-0.103556
-0.0980658
-0.0907927
-0.0801127
-0.0661235
-0.0505091
-0.0335673
-0.0160511
-0.000438811
0.0117804
0.0211275
0.0282203
0.0329779
0.0370771
0.0397432
0.0352716
0.034549
0.0357118
0.0295097
0.0151304
-0.00607322
-0.0326756
-0.0639738
-0.100088
-0.139616
-0.181961
-0.224918
-0.267276
-0.30732
-0.343845
-0.375637
-0.40181
-0.421674
-0.434556
-0.439377
-0.436415
-0.426608
-0.411819
-0.393438
-0.372476
-0.348496
-0.319333
-0.283352
-0.243196
-0.210595
-0.206313
-0.133829
-0.154966
-0.168634
-0.160404
-0.129439
-0.078509
-0.0250634
0.0198636
0.0514283
0.069709
0.0704825
0.0571445
0.0322728
-0.00295686
-0.0472843
-0.0994195
-0.155808
-0.211342
-0.260708
-0.299079
-0.32199
-0.326306
-0.311015
-0.277852
-0.231631
-0.17898
-0.126181
-0.0779745
-0.0373867
-0.00531611
0.0141272
0.0280312
0.0429619
0.0593238
0.0770249
0.0960159
0.115921
0.13634
0.156963
0.177145
0.196134
0.21347
0.22832
0.240299
0.248833
0.253749
0.255062
0.252749
0.247349
0.239244
0.228956
0.217098
0.204356
0.190978
0.177694
0.164697
0.152328
0.140554
0.129788
0.120089
0.10884
0.0911001
0.0692377
0.0419833
0.00993694
-0.023501
-0.0537026
-0.0769589
-0.0919085
-0.0995511
-0.102154
-0.101677
-0.0994516
-0.0960384
-0.0906075
-0.0835431
-0.0739452
-0.0606511
-0.0454819
-0.0293358
-0.0119104
0.00432985
0.0169628
0.026555
0.0343778
0.0397357
0.0400307
0.0284978
0.0143347
-0.00101926
0.0142997
0.0112785
0.00982586
-0.00228917
-0.0235708
-0.0504772
-0.0809638
-0.113759
-0.147582
-0.180487
-0.211246
-0.238111
-0.260532
-0.278223
-0.290746
-0.298438
-0.301325
-0.30038
-0.296054
-0.287968
-0.276147
-0.260929
-0.243671
-0.225619
-0.208363
-0.191353
-0.171422
-0.146287
-0.121166
-0.113781
-0.0772923
-0.096359
-0.115883
-0.125362
-0.120743
-0.0962638
-0.0581787
-0.0147154
0.0242982
0.0539865
0.0667763
0.0635818
0.0460489
0.0167394
-0.0226319
-0.0703902
-0.123986
-0.178537
-0.22849
-0.268672
-0.294168
-0.301395
-0.289198
-0.259151
-0.216015
-0.166475
-0.116669
-0.0711501
-0.0328575
-0.00273505
0.015337
0.0281812
0.0420135
0.0572052
0.0736873
0.0914288
0.110098
0.129271
0.148685
0.16775
0.185727
0.202183
0.216328
0.227788
0.236014
0.240834
0.242249
0.240236
0.235322
0.227847
0.218306
0.207294
0.19544
0.182979
0.17063
0.158537
0.147004
0.136037
0.126057
0.117129
0.106933
0.0906753
0.0705911
0.0453043
0.0151898
-0.0165798
-0.0454983
-0.0678528
-0.0823687
-0.0898839
-0.0924919
-0.0918101
-0.0890476
-0.0843623
-0.0775054
-0.0688316
-0.0568707
-0.0422113
-0.0269374
-0.0103382
0.00630292
0.0190862
0.0276015
0.0336604
0.0343566
0.0228322
-0.00408247
-0.0319993
-0.0425609
-0.0852974
-0.0700372
-0.0710984
-0.0749106
-0.0876231
-0.107521
-0.129972
-0.155347
-0.181043
-0.20667
-0.228725
-0.244543
-0.253887
-0.257076
-0.255456
-0.250345
-0.241589
-0.23056
-0.216844
-0.202136
-0.186846
-0.172327
-0.15931
-0.148182
-0.137655
-0.126059
-0.113135
-0.0992124
-0.0849392
-0.0714504
-0.0663305
-0.0449289
-0.0576039
-0.0746352
-0.0888934
-0.0950746
-0.088989
-0.0690094
-0.038
-0.00187121
0.0323095
0.0542516
0.0617663
0.0531473
0.0308831
-0.00299619
-0.0455402
-0.0958249
-0.148732
-0.198599
-0.240021
-0.2677
-0.277574
-0.268285
-0.241259
-0.201127
-0.154622
-0.107729
-0.0647952
-0.0286797
-0.000392117
0.0163996
0.0282598
0.0410718
0.0551747
0.0705132
0.0870732
0.104574
0.122569
0.140831
0.158826
0.175833
0.191442
0.204904
0.215857
0.223779
0.228498
0.229998
0.228265
0.223805
0.21692
0.208081
0.197865
0.186841
0.175244
0.163769
0.152513
0.141755
0.131549
0.122303
0.114079
0.10484
0.0899638
0.0715444
0.0481116
0.0198388
-0.0103191
-0.0379301
-0.0593585
-0.0734073
-0.080712
-0.0831834
-0.0821201
-0.078529
-0.0725763
-0.0644537
-0.0540305
-0.0404242
-0.0256618
-0.0104401
0.00572409
0.0187329
0.0258152
0.0291989
0.0266609
0.0102678
-0.0173391
-0.0414929
-0.0616239
-0.0990649
-0.14503
-0.172247
-0.199161
-0.223033
-0.252548
-0.278748
-0.301873
-0.317625
-0.332367
-0.344785
-0.351935
-0.348462
-0.332463