/*--------------------------------*- C++ -*----------------------------------*\
| =========                 |                                                 |
| \\      /  F ield         | OpenFOAM: The Open Source CFD Toolbox           |
|  \\    /   O peration     | Version:  3.0.1                                 |
|   \\  /    A nd           | Web:      www.OpenFOAM.org                      |
|    \\/     M anipulation  |                                                 |
\*---------------------------------------------------------------------------*/
FoamFile
{
    version     2.0;
    format      ascii;
    class       volVectorField;
    location    "103.846855434881263";
    object      U;
}
// * * * * * * * * * * * * * * * * * * * * * * * * * * * * * * * * * * * * * //

dimensions      [0 1 -1 0 0 0 0];

internalField   nonuniform List<vector> 
8400
(
(0.0510976 -0.0013947 7.44903e-17)
(0.0504873 -0.0219387 5.27434e-17)
(0.0479949 -0.035024 5.07378e-17)
(0.0466137 -0.0397893 5.65561e-17)
(0.0495154 -0.0374955 7.214e-17)
(0.0568262 -0.0311471 5.11487e-17)
(0.0678927 -0.0253002 -4.08844e-18)
(0.0822781 -0.0216424 3.21988e-19)
(0.100161 -0.0199725 1.34262e-17)
(0.12086 -0.0192058 -8.91726e-18)
(0.143569 -0.0186379 -1.81653e-17)
(0.167159 -0.0173899 2.13439e-18)
(0.190368 -0.0146945 6.60938e-18)
(0.212012 -0.00997574 8.63361e-18)
(0.231488 -0.00302573 1.46702e-17)
(0.248936 0.00616708 7.31882e-18)
(0.264708 0.0176602 3.25263e-18)
(0.279084 0.0310347 -6.0543e-18)
(0.293077 0.0462782 6.46053e-18)
(0.307381 0.0638055 9.36058e-18)
(0.323165 0.0841719 3.83687e-18)
(0.341129 0.108124 -1.41087e-18)
(0.361453 0.136491 3.90631e-18)
(0.383851 0.170137 -2.34033e-18)
(0.407288 0.209816 -1.27023e-18)
(0.429686 0.255623 -1.53526e-18)
(0.447858 0.305974 -5.05521e-19)
(0.458576 0.356734 6.59994e-19)
(0.461157 0.402059 -2.7462e-19)
(0.458181 0.437462 8.2103e-19)
(0.441537 0.458919 8.73519e-19)
(0.387359 0.435792 2.96789e-18)
(0.353266 0.433648 -2.02107e-18)
(0.30274 0.411917 -6.73489e-19)
(0.264641 0.39518 -1.70334e-18)
(0.21932 0.367645 -1.91164e-18)
(0.182883 0.341116 -1.23179e-18)
(0.144512 0.307836 -2.11559e-18)
(0.113053 0.274007 -3.35845e-18)
(0.0830713 0.236156 -2.20257e-18)
(0.0589581 0.197191 -2.10262e-18)
(0.0384274 0.156164 -2.01096e-18)
(0.0232623 0.11422 6.70142e-19)
(0.0127667 0.0713005 1.95873e-18)
(0.00732403 0.0279995 -8.46567e-18)
(0.00691057 -0.0152183 -8.76213e-18)
(0.0114704 -0.0581605 -1.01047e-17)
(0.0211459 -0.100534 -5.71167e-18)
(0.0352552 -0.141859 3.51237e-18)
(0.0547807 -0.182213 -2.5121e-18)
(0.0774479 -0.220094 1.23636e-18)
(0.106073 -0.25692 5.17612e-19)
(0.135587 -0.289174 5.881e-19)
(0.172027 -0.321104 1.20642e-19)
(0.20589 -0.345631 2.89353e-18)
(0.248415 -0.371397 9.23607e-19)
(0.283168 -0.385851 6.8057e-19)
(0.329718 -0.405323 1.87256e-18)
(0.359535 -0.405162 7.93691e-19)
(0.408377 -0.425728 3.30741e-18)
(0.41934 -0.401107 -2.09817e-18)
(0.416231 -0.363596 3.9171e-18)
(0.407223 -0.317834 2.07433e-18)
(0.390128 -0.268456 1.63803e-18)
(0.366012 -0.220921 1.87161e-18)
(0.338003 -0.178705 -5.3223e-18)
(0.308829 -0.142867 -5.40716e-18)
(0.280018 -0.113127 -5.49345e-18)
(0.252137 -0.0888528 -1.89799e-18)
(0.225161 -0.0694839 4.08952e-18)
(0.199038 -0.0545324 2.30372e-18)
(0.173022 -0.0430315 -3.13358e-19)
(0.145988 -0.034712 4.91611e-19)
(0.117283 -0.0295838 1.56434e-18)
(0.0868999 -0.0275518 4.24945e-18)
(0.055487 -0.0283228 -4.92257e-18)
(0.0243275 -0.0313771 -1.32014e-18)
(-0.00500689 -0.0359521 2.65613e-19)
(-0.0312096 -0.0421968 2.84648e-18)
(-0.0532431 -0.0498462 1.24887e-18)
(-0.0703977 -0.0590624 4.6223e-19)
(-0.0827904 -0.0689222 -3.98205e-18)
(-0.0910843 -0.0769018 -1.48437e-17)
(-0.0959599 -0.0789526 -1.69823e-17)
(-0.0978255 -0.0711595 -1.79331e-17)
(-0.0972629 -0.0519303 -2.34308e-17)
(-0.0942229 -0.0236336 -3.1566e-17)
(-0.0886222 0.0103981 -3.95272e-17)
(-0.0815553 0.0444831 -3.48408e-17)
(-0.0743337 0.0720881 -2.39039e-17)
(-0.0670772 0.0914352 3.8579e-18)
(-0.0616834 0.102318 1.89881e-17)
(-0.0601168 0.102991 1.1305e-17)
(-0.0573251 0.0897604 4.12009e-18)
(-0.0414725 0.058486 -3.80137e-17)
(0.000990833 0.00929488 -2.57337e-17)
(0.0601031 -0.0543628 -3.72149e-17)
(0.0891793 -0.124111 5.69056e-18)
(0.0634067 -0.180531 3.2335e-17)
(0.0189317 -0.208692 2.07288e-17)
(-0.0134896 -0.210488 2.47027e-17)
(-0.0347648 -0.19068 2.49211e-17)
(-0.0492128 -0.152294 2.6935e-17)
(-0.058828 -0.10056 2.81861e-17)
(-0.0645426 -0.0425969 2.78646e-17)
(-0.0669178 0.0159472 3.52684e-17)
(-0.0668068 0.0710512 -4.95548e-18)
(-0.0649701 0.119871 1.12908e-17)
(-0.0620996 0.160321 4.57233e-17)
(-0.0584576 0.190936 1.77794e-19)
(-0.0538832 0.211323 9.62325e-18)
(-0.0481726 0.22132 2.19784e-17)
(-0.0409468 0.221083 2.70768e-17)
(-0.0321055 0.210546 -5.83772e-18)
(-0.0208349 0.190408 4.33276e-17)
(-0.00753343 0.162444 4.48592e-17)
(0.00700182 0.129154 4.87201e-17)
(0.0216364 0.0933673 8.64402e-17)
(0.0351408 0.0578483 1.14155e-16)
(0.0459846 0.0253201 1.36891e-16)
(0.205941 -0.0498653 -1.16119e-17)
(0.199048 -0.0625668 2.29126e-18)
(0.191686 -0.0837278 5.76469e-17)
(0.188368 -0.101912 8.40879e-17)
(0.198229 -0.115434 5.51363e-17)
(0.222552 -0.120716 5.27178e-17)
(0.257562 -0.119561 4.50549e-17)
(0.298115 -0.113791 4.20399e-17)
(0.342699 -0.106669 4.5109e-17)
(0.390046 -0.0980119 3.57562e-18)
(0.439381 -0.0877108 -2.90117e-18)
(0.488995 -0.0747314 1.0442e-18)
(0.537336 -0.0582979 8.55099e-18)
(0.582445 -0.0375178 1.44187e-17)
(0.623114 -0.0120029 -8.26155e-19)
(0.659184 0.0184231 4.24753e-19)
(0.691814 0.0534616 -9.78992e-18)
(0.721854 0.0929141 -6.33492e-18)
(0.750245 0.13691 9.44314e-18)
(0.777545 0.185156 1.18294e-17)
(0.805222 0.238636 -2.46528e-18)
(0.833709 0.298083 -7.53956e-18)
(0.861775 0.363745 -1.23212e-17)
(0.886557 0.434751 -8.01578e-18)
(0.903907 0.508399 -3.9793e-18)
(0.909693 0.580105 -5.48281e-18)
(0.901631 0.644474 -7.64492e-18)
(0.880742 0.697251 2.92372e-18)
(0.850972 0.73685 -2.97559e-18)
(0.815975 0.764109 1.13205e-18)
(0.775177 0.778534 -1.51337e-18)
(0.684336 0.748737 -7.34293e-19)
(0.631795 0.745022 -2.32646e-18)
(0.546679 0.711303 -2.31785e-18)
(0.487613 0.686572 -3.57234e-18)
(0.410449 0.643191 -3.6477e-18)
(0.351647 0.600117 -2.29829e-18)
(0.285438 0.545631 -3.14127e-18)
(0.232791 0.487545 -9.45293e-18)
(0.180325 0.422722 -6.45431e-18)
(0.138811 0.353354 -5.56481e-18)
(0.102399 0.280324 -7.05963e-18)
(0.0758277 0.203776 1.22903e-18)
(0.0572398 0.125282 -7.7943e-18)
(0.0476648 0.0452669 -1.6837e-17)
(0.0471935 -0.0346795 -2.41606e-17)
(0.0556774 -0.114342 -3.0402e-17)
(0.0735857 -0.192069 -1.23743e-17)
(0.0989858 -0.268087 6.499e-19)
(0.134483 -0.340446 2.53359e-18)
(0.174192 -0.408721 7.6782e-18)
(0.225407 -0.472751 2.2364e-18)
(0.275682 -0.529146 2.6083e-18)
(0.340011 -0.582845 3.67692e-18)
(0.395775 -0.623815 -2.4032e-19)
(0.470135 -0.666423 6.03767e-18)
(0.525409 -0.688859 4.91465e-18)
(0.606583 -0.721954 6.52969e-18)
(0.654428 -0.723311 4.33345e-18)
(0.740169 -0.752947 7.85955e-18)
(0.77471 -0.735789 4.93098e-18)
(0.801312 -0.704558 5.46169e-18)
(0.820839 -0.660403 3.92045e-18)
(0.829262 -0.602938 5.22401e-18)
(0.822602 -0.534427 2.29938e-18)
(0.800003 -0.459768 8.07334e-18)
(0.763882 -0.384753 -1.21597e-18)
(0.718298 -0.314127 -1.77793e-18)
(0.667062 -0.25067 -3.16804e-19)
(0.612608 -0.195449 1.45592e-18)
(0.556005 -0.148666 2.36625e-18)
(0.496638 -0.109402 -3.31139e-18)
(0.433417 -0.0772628 5.31489e-18)
(0.365724 -0.0523824 5.28427e-18)
(0.294092 -0.0348574 4.41535e-18)
(0.220402 -0.0245164 -1.15951e-18)
(0.14776 -0.0208674 1.75433e-18)
(0.080031 -0.0226455 2.71495e-18)
(0.0202405 -0.029633 5.20626e-18)
(-0.0292596 -0.0407392 7.41677e-18)
(-0.0679704 -0.0524585 9.057e-18)
(-0.0983403 -0.0605197 -1.0003e-19)
(-0.124011 -0.0597765 -7.16356e-18)
(-0.148127 -0.0469869 -1.12879e-17)
(-0.172297 -0.0254387 -2.41373e-17)
(-0.193356 -0.00268736 -2.25972e-17)
(-0.205568 0.0137423 -3.27664e-17)
(-0.204572 0.0160213 -1.52134e-17)
(-0.186064 -0.00286546 7.94194e-18)
(-0.148731 -0.0492697 1.49353e-17)
(-0.101364 -0.119176 1.10169e-17)
(-0.0603444 -0.188471 4.03341e-18)
(-0.0291186 -0.273215 4.62906e-18)
(-0.00290888 -0.360146 2.516e-17)
(0.00916597 -0.433739 3.19939e-17)
(0.00260905 -0.48155 3.46945e-17)
(-0.0192939 -0.502445 3.89166e-17)
(-0.0552703 -0.50728 3.25014e-17)
(-0.10088 -0.503989 3.36499e-17)
(-0.145336 -0.493022 2.70591e-17)
(-0.184889 -0.472686 2.76172e-17)
(-0.217483 -0.445209 4.49673e-17)
(-0.239826 -0.414846 4.11376e-17)
(-0.248642 -0.380456 5.33602e-17)
(-0.243531 -0.341829 3.4429e-17)
(-0.227038 -0.301377 5.65168e-17)
(-0.201562 -0.2607 1.81938e-17)
(-0.170519 -0.221004 3.1455e-17)
(-0.137267 -0.183409 1.75048e-17)
(-0.103349 -0.148438 9.86459e-18)
(-0.0691528 -0.116256 -1.95137e-17)
(-0.0346899 -0.0876234 2.96163e-17)
(0.000147312 -0.0634308 9.38327e-18)
(0.034681 -0.0423337 4.07941e-17)
(0.068158 -0.0255357 4.40534e-17)
(0.0998574 -0.0152208 3.98136e-17)
(0.129142 -0.0115619 1.154e-16)
(0.1554 -0.0141386 1.26545e-16)
(0.178194 -0.0229661 1.01321e-16)
(0.196898 -0.0378612 3.53693e-17)
(0.411386 -0.2328 1.95181e-17)
(0.399043 -0.198376 2.19221e-17)
(0.402971 -0.193191 2.25065e-19)
(0.409613 -0.185538 5.39954e-17)
(0.436822 -0.190221 3.88818e-17)
(0.478229 -0.190669 4.39613e-17)
(0.53386 -0.191272 4.49461e-17)
(0.592987 -0.185178 4.24566e-17)
(0.653799 -0.175821 4.1798e-17)
(0.712995 -0.161337 3.79636e-17)
(0.771445 -0.143652 2.53345e-17)
(0.827309 -0.121386 5.96193e-18)
(0.88051 -0.0951759 -7.59927e-18)
(0.929873 -0.0639061 9.70165e-19)
(0.974877 -0.0272355 -1.58997e-17)
(1.01484 0.0152629 -7.03042e-19)
(1.0506 0.0638092 -1.04768e-17)
(1.08308 0.119165 8.96873e-18)
(1.1131 0.181343 5.98394e-18)
(1.13956 0.249182 1.06463e-17)
(1.16205 0.322882 1.09813e-17)
(1.17974 0.401291 3.41354e-18)
(1.19 0.482209 -8.88918e-18)
(1.18932 0.562151 3.62502e-19)
(1.17453 0.636289 -2.5856e-18)
(1.14429 0.699442 -2.47825e-19)
(1.10009 0.747494 5.86249e-19)
(1.04606 0.778849 2.87385e-18)
(0.987239 0.795005 1.16653e-18)
(0.927755 0.799465 4.21125e-18)
(0.873393 0.795901 3.21205e-18)
(0.786934 0.788495 2.54981e-18)
(0.727715 0.773387 2.40514e-18)
(0.643948 0.7558 1.9026e-18)
(0.579231 0.724509 8.54362e-19)
(0.499874 0.691704 -8.72586e-19)
(0.435585 0.643494 -4.93878e-18)
(0.364611 0.593926 -4.97123e-18)
(0.306756 0.530087 -9.60425e-18)
(0.248656 0.464613 -1.14768e-17)
(0.202558 0.387941 -6.12688e-18)
(0.16129 0.309524 -1.58408e-17)
(0.131471 0.224068 -2.00507e-17)
(0.110309 0.136962 -9.6029e-18)
(0.0994321 0.0470528 -2.19048e-17)
(0.0990138 -0.0426619 -3.67545e-17)
(0.108749 -0.132474 -1.42411e-17)
(0.129598 -0.218662 -1.63013e-18)
(0.158451 -0.304148 1.20751e-17)
(0.199007 -0.381705 1.33616e-17)
(0.243467 -0.457985 1.40851e-17)
(0.300529 -0.522604 1.13206e-17)
(0.356348 -0.585529 1.01185e-17)
(0.425669 -0.634609 4.50006e-18)
(0.487381 -0.68146 4.51444e-18)
(0.564342 -0.714324 6.4519e-18)
(0.625811 -0.743931 5.66661e-18)
(0.706465 -0.762312 8.62135e-18)
(0.761655 -0.77555 6.21835e-18)
(0.844338 -0.784535 1.12693e-17)
(0.893353 -0.785963 6.20732e-18)
(0.945037 -0.778334 9.69849e-18)
(0.993861 -0.758208 8.05403e-18)
(1.03518 -0.722402 1.22506e-17)
(1.06332 -0.669951 7.50063e-18)
(1.07368 -0.603049 1.20044e-17)
(1.06437 -0.526445 1.70037e-18)
(1.03653 -0.446034 9.10981e-19)
(0.993258 -0.367346 2.12646e-18)
(0.938058 -0.294511 4.20231e-19)
(0.8737 -0.230046 4.56552e-18)
(0.801443 -0.175163 1.40562e-18)
(0.721653 -0.130375 1.12363e-17)
(0.634663 -0.0958585 7.31374e-18)
(0.541699 -0.0713999 6.93439e-18)
(0.445201 -0.0563168 4.91833e-18)
(0.348872 -0.0495062 5.02567e-18)
(0.257058 -0.0495507 7.23544e-18)
(0.173744 -0.0540989 1.37301e-17)
(0.101528 -0.0607865 1.09401e-17)
(0.0395786 -0.065692 6.02099e-18)
(-0.0159844 -0.0649384 -6.50671e-18)
(-0.0703095 -0.0568275 -2.01382e-17)
(-0.126416 -0.0451979 -3.07246e-17)
(-0.179432 -0.0380355 -1.69315e-17)
(-0.21662 -0.0456978 -3.80756e-18)
(-0.229703 -0.0755993 7.06583e-18)
(-0.218095 -0.128861 2.36705e-17)
(-0.176059 -0.202371 2.70954e-17)
(-0.0977599 -0.289807 2.91367e-17)
(-0.00838678 -0.378599 3.94909e-17)
(0.0488554 -0.423837 3.36763e-17)
(0.0629546 -0.477457 4.93764e-17)
(0.0540522 -0.524544 5.86854e-17)
(0.0399672 -0.572375 5.87608e-17)
(0.0168951 -0.613851 3.62079e-17)
(-0.0179133 -0.647936 2.05575e-17)
(-0.0645907 -0.674313 2.69915e-17)
(-0.119343 -0.694968 -4.88389e-18)
(-0.174906 -0.710415 5.76629e-18)
(-0.225146 -0.72022 -2.34134e-18)
(-0.263811 -0.723209 4.06888e-18)
(-0.285742 -0.718701 -1.93846e-17)
(-0.288772 -0.708438 3.73799e-18)
(-0.272987 -0.692249 1.1188e-17)
(-0.240584 -0.669361 3.01388e-17)
(-0.196906 -0.640878 3.43733e-17)
(-0.147743 -0.607301 4.08759e-17)
(-0.0970656 -0.569468 4.74502e-17)
(-0.0471641 -0.529129 5.40812e-17)
(0.00196773 -0.487576 5.24121e-17)
(0.0517694 -0.445894 5.10205e-17)
(0.103439 -0.405623 5.04731e-17)
(0.156449 -0.369573 4.7539e-17)
(0.207619 -0.337791 5.07943e-17)
(0.254206 -0.308246 5.28246e-17)
(0.295462 -0.282907 6.13068e-17)
(0.331511 -0.263429 2.67954e-17)
(0.362839 -0.250287 2.77709e-17)
(0.390376 -0.242553 1.95621e-17)
(0.639877 -0.490662 3.9664e-17)
(0.639517 -0.409161 3.60555e-17)
(0.682306 -0.396235 3.83291e-17)
(0.703831 -0.347668 2.42299e-17)
(0.751361 -0.333997 1.15412e-17)
(0.793983 -0.305247 -2.01829e-18)
(0.850816 -0.291032 2.04792e-17)
(0.904851 -0.268964 3.02563e-17)
(0.963041 -0.250422 2.19514e-17)
(1.01714 -0.225659 2.44775e-17)
(1.07036 -0.199077 2.3454e-17)
(1.11945 -0.167228 2.15987e-17)
(1.16565 -0.131914 2.58272e-17)
(1.20797 -0.091558 2.97019e-17)
(1.24708 -0.0465574 1.4056e-17)
(1.28203 0.00397482 1.84017e-17)
(1.3128 0.0606625 -5.34113e-18)
(1.33934 0.124189 6.49199e-18)
(1.36195 0.194877 1.37031e-18)
(1.37842 0.272546 4.4436e-18)
(1.38628 0.354384 -1.13274e-17)
(1.38424 0.438325 3.36262e-18)
(1.36963 0.520379 -7.57568e-18)
(1.34032 0.596112 8.91509e-20)
(1.29558 0.660715 9.68209e-18)
(1.23692 0.710173 1.54273e-18)
(1.16807 0.742182 -2.68501e-18)
(1.09406 0.756964 -4.48371e-18)
(1.01995 0.75732 1.3796e-19)
(0.950137 0.747351 2.6195e-18)
(0.892418 0.732968 7.59326e-18)
(0.816763 0.740687 6.25831e-18)
(0.758529 0.719565 5.97852e-18)
(0.683162 0.714634 7.51095e-18)
(0.620593 0.681447 6.97153e-18)
(0.546701 0.659483 6.33387e-18)
(0.484454 0.611979 2.27491e-18)
(0.416279 0.571249 2.038e-18)
(0.359802 0.509303 -1.19142e-18)
(0.302584 0.450304 -1.05487e-18)
(0.257123 0.375662 -1.28332e-18)
(0.215647 0.301355 -1.07557e-17)
(0.185943 0.217654 -1.13659e-17)
(0.164586 0.132968 -7.58115e-18)
(0.153616 0.0445691 -2.36522e-17)
(0.153212 -0.0434219 -2.05682e-17)
(0.162958 -0.131926 3.96599e-18)
(0.184282 -0.21562 1.63198e-17)
(0.213182 -0.29981 8.40782e-18)
(0.253875 -0.372945 2.11795e-17)
(0.297883 -0.447759 1.74354e-17)
(0.354015 -0.505541 1.28502e-17)
(0.40876 -0.567272 4.8772e-18)
(0.475174 -0.60726 8.4798e-18)
(0.53529 -0.65418 1.13713e-17)
(0.606629 -0.676019 1.00742e-17)
(0.666603 -0.708414 1.1459e-17)
(0.738702 -0.713946 1.42334e-17)
(0.793805 -0.734285 1.29619e-17)
(0.865539 -0.727803 1.56859e-17)
(0.918991 -0.74138 1.38953e-17)
(0.982244 -0.749906 1.05438e-17)
(1.04771 -0.747675 1.36847e-17)
(1.11064 -0.730827 6.36293e-18)
(1.16528 -0.696952 1.17496e-17)
(1.20581 -0.646296 6.74268e-18)
(1.22775 -0.58173 6.78047e-18)
(1.22901 -0.508021 4.41409e-18)
(1.20999 -0.430847 6.68767e-18)
(1.17287 -0.355612 2.70518e-18)
(1.12043 -0.286647 1.4681e-17)
(1.05513 -0.226839 3.99497e-18)
(0.978777 -0.177605 7.10723e-18)
(0.892783 -0.13911 5.03903e-18)
(0.7988 -0.110637 1.23398e-17)
(0.699025 -0.0908443 5.71511e-18)
(0.59641 -0.0781427 1.30346e-17)
(0.494427 -0.0708695 1.18648e-17)
(0.396319 -0.0672888 9.82035e-18)
(0.303903 -0.0653442 8.91845e-18)
(0.21598 -0.0632035 2.514e-18)
(0.12856 -0.060328 -1.12281e-17)
(0.0378742 -0.0583611 -9.90252e-18)
(-0.0525939 -0.0612757 -2.16671e-18)
(-0.125566 -0.0764848 1.68241e-17)
(-0.157723 -0.110822 2.12716e-17)
(-0.139017 -0.1672 2.96164e-17)
(-0.0877907 -0.241012 3.62542e-17)
(-0.0376742 -0.322121 4.48774e-17)
(-0.00454274 -0.399854 5.15266e-17)
(0.0199635 -0.476483 5.84699e-17)
(0.0334802 -0.542908 5.42461e-17)
(0.0815058 -0.61825 3.09099e-17)
(0.107298 -0.678505 1.60038e-17)
(0.102325 -0.728667 1.45206e-17)
(0.0682374 -0.768875 -1.29946e-17)
(0.0157165 -0.807414 -7.78545e-18)
(-0.0469292 -0.845782 -1.40882e-17)
(-0.114129 -0.884905 -8.15636e-18)
(-0.180454 -0.922458 -1.2259e-18)
(-0.2415 -0.955707 -2.14551e-18)
(-0.29284 -0.981908 -3.1199e-18)
(-0.32899 -1.0005 -1.94575e-18)
(-0.343628 -1.0098 -1.46019e-17)
(-0.334353 -1.00734 1.85221e-17)
(-0.30408 -0.993454 6.22936e-18)
(-0.258302 -0.969753 3.05403e-17)
(-0.204474 -0.9383 2.16317e-17)
(-0.147289 -0.901835 2.09894e-17)
(-0.0877407 -0.862461 4.67875e-17)
(-0.0258316 -0.821142 3.71068e-17)
(0.0397534 -0.777625 4.20473e-17)
(0.110519 -0.73261 7.697e-17)
(0.18463 -0.688148 6.51431e-17)
(0.258033 -0.645253 7.3155e-17)
(0.327466 -0.605258 6.96951e-17)
(0.392776 -0.56917 4.83083e-17)
(0.454663 -0.53816 6.08557e-17)
(0.515837 -0.513619 5.09872e-17)
(0.578968 -0.498404 2.70074e-17)
(0.870173 -0.744566 1.07975e-17)
(0.893938 -0.627051 2.04071e-17)
(0.956028 -0.606292 2.01084e-18)
(0.985769 -0.520205 1.87359e-17)
(1.03708 -0.492239 7.34054e-18)
(1.07125 -0.431117 1.22112e-17)
(1.11772 -0.401013 2.66751e-17)
(1.15613 -0.357154 2.27847e-17)
(1.20032 -0.32594 8.13879e-18)
(1.24025 -0.288134 -4.68015e-18)
(1.28105 -0.252702 1.52775e-17)
(1.31857 -0.212583 7.53314e-19)
(1.3545 -0.170396 2.33183e-17)
(1.38761 -0.124179 1.91324e-18)
(1.41854 -0.0740281 9.93644e-18)
(1.44651 -0.0189004 -2.05243e-18)
(1.47077 0.0420529 4.27578e-18)
(1.49017 0.109518 2.44566e-18)
(1.50343 0.184003 2.39241e-18)
(1.50903 0.264951 -1.4293e-17)
(1.50338 0.348876 4.74138e-18)
(1.4843 0.432937 5.76698e-18)
(1.45034 0.512295 -6.39649e-18)
(1.40094 0.582404 2.06193e-18)
(1.33748 0.639049 4.64313e-18)
(1.26324 0.679356 2.97632e-18)
(1.18282 0.702327 -2.32635e-18)
(1.10128 0.7092 -1.72968e-19)
(1.02343 0.703164 5.00729e-18)
(0.953497 0.688391 2.87108e-18)
(0.899129 0.671701 1.3619e-18)
(0.828978 0.683794 6.18729e-18)
(0.776056 0.66269 4.29866e-18)
(0.705786 0.662119 7.89991e-18)
(0.648485 0.630867 9.20832e-18)
(0.579077 0.613798 9.51853e-18)
(0.521205 0.569733 9.06824e-18)
(0.456615 0.534406 6.94629e-18)
(0.403356 0.476819 1.7669e-18)
(0.348643 0.423355 8.78043e-20)
(0.305326 0.353353 8.1237e-18)
(0.265184 0.284299 -3.28325e-18)
(0.236539 0.205201 6.26537e-18)
(0.215833 0.125493 -3.11371e-18)
(0.205154 0.0416788 6.04953e-20)
(0.204706 -0.0415806 -1.55869e-17)
(0.214083 -0.125591 2.68377e-18)
(0.234921 -0.204442 6.80174e-18)
(0.262775 -0.284203 1.01907e-17)
(0.301877 -0.351995 3.14526e-17)
(0.343846 -0.42242 1.0747e-17)
(0.39737 -0.474526 1.56144e-17)
(0.448971 -0.532327 1.37754e-17)
(0.511745 -0.56682 1.89733e-17)
(0.567542 -0.610782 1.41275e-17)
(0.634371 -0.627677 1.81235e-17)
(0.689256 -0.658688 1.66424e-17)
(0.756213 -0.659833 1.83467e-17)
(0.806429 -0.680821 1.75145e-17)
(0.872526 -0.669907 2.14188e-17)
(0.923249 -0.686634 2.04537e-17)
(0.987372 -0.701092 1.71573e-17)
(1.05755 -0.706775 1.76029e-17)
(1.12944 -0.69986 1.538e-17)
(1.19771 -0.677536 1.66884e-17)
(1.25659 -0.639024 1.61595e-17)
(1.30072 -0.585895 1.02427e-17)
(1.32623 -0.521749 1.80386e-17)
(1.33142 -0.451634 2.02261e-17)
(1.31682 -0.381049 1.72934e-17)
(1.28446 -0.314994 1.29245e-17)
(1.23708 -0.257055 1.14974e-17)
(1.17732 -0.209022 5.40606e-18)
(1.10738 -0.170798 4.74203e-18)
(1.02904 -0.141099 6.35125e-18)
(0.943843 -0.118016 9.1373e-18)
(0.853269 -0.0997891 8.46812e-18)
(0.758957 -0.0851805 9.40958e-18)
(0.662303 -0.0736777 1.03128e-17)
(0.563864 -0.065294 3.23286e-19)
(0.462483 -0.0607178 8.78897e-18)
(0.355655 -0.0613425 -1.10468e-18)
(0.241713 -0.069715 -1.98163e-17)
(0.126205 -0.0870442 -1.57304e-17)
(0.0263548 -0.115951 -2.6337e-18)
(-0.0315257 -0.15887 5.59534e-18)
(-0.0250139 -0.212345 2.69107e-17)
(0.0446373 -0.26946 3.31201e-17)
(0.151915 -0.324453 4.02388e-17)
(0.268133 -0.370819 3.73447e-17)
(0.37527 -0.39994 4.75401e-17)
(0.391541 -0.457048 6.04172e-17)
(0.368002 -0.512827 6.75008e-17)
(0.318402 -0.57323 6.44656e-17)
(0.265786 -0.640008 3.60132e-17)
(0.212663 -0.709616 1.21973e-17)
(0.15647 -0.782012 7.48668e-18)
(0.0926124 -0.854739 -1.04785e-17)
(0.0176795 -0.925934 -1.00065e-18)
(-0.0660604 -0.99386 -8.65469e-18)
(-0.149423 -1.06035 5.38823e-18)
(-0.222358 -1.12334 -1.85846e-17)
(-0.27945 -1.17325 1.21759e-17)
(-0.317527 -1.20522 -2.02398e-17)
(-0.332291 -1.2223 -3.42124e-18)
(-0.32062 -1.22663 -2.80279e-18)
(-0.286093 -1.21864 2.74741e-17)
(-0.235249 -1.19749 2.72043e-18)
(-0.170936 -1.16615 5.19383e-17)
(-0.0984738 -1.13035 8.27246e-18)
(-0.0252423 -1.0934 2.18294e-17)
(0.0506238 -1.05523 9.68906e-18)
(0.13607 -1.01509 3.17962e-17)
(0.229681 -0.973776 4.86399e-17)
(0.323428 -0.931105 3.87453e-17)
(0.414826 -0.88909 4.98124e-17)
(0.508245 -0.851005 4.95879e-17)
(0.603336 -0.814261 4.95186e-17)
(0.6964 -0.780423 2.4664e-17)
(0.787538 -0.75707 3.89351e-17)
(0.931688 -0.880044 2.67439e-17)
(1.00536 -0.771441 1.58847e-17)
(1.06588 -0.743178 2.26451e-17)
(1.12667 -0.655417 1.43096e-17)
(1.17298 -0.613078 2.27939e-17)
(1.21898 -0.541308 1.20155e-17)
(1.25606 -0.494324 6.30156e-18)
(1.29244 -0.437522 2.00224e-17)
(1.325 -0.392592 1.42773e-17)
(1.35737 -0.345022 1.72114e-17)
(1.38798 -0.301047 1.74347e-17)
(1.41788 -0.255334 1.70612e-17)
(1.44638 -0.208322 2.07921e-17)
(1.47355 -0.158834 1.25424e-18)
(1.49911 -0.105937 1.40822e-17)
(1.52251 -0.048781 7.19217e-18)
(1.54256 0.0139154 1.39075e-17)
(1.55755 0.0828086 7.90417e-18)
(1.56536 0.158035 1.21642e-17)
(1.5639 0.238564 -1.11499e-17)
(1.54983 0.32275 -8.37158e-18)
(1.52084 0.405453 3.70306e-18)
(1.47612 0.48254 -4.49412e-18)
(1.4164 0.549056 2.73007e-18)
(1.34435 0.601366 -1.23549e-18)
(1.26414 0.637185 3.76025e-19)
(1.18058 0.656154 -1.65306e-18)
(1.09844 0.65979 -8.31038e-19)
(1.02226 0.651183 -2.41192e-18)
(0.955785 0.634441 2.96991e-18)
(0.906005 0.616858 5.35174e-19)
(0.840084 0.631566 -6.26157e-19)
(0.792159 0.61119 2.17901e-18)
(0.726368 0.613514 1.86752e-18)
(0.673548 0.584289 7.01388e-18)
(0.608455 0.570633 8.82375e-18)
(0.554312 0.529856 1.05508e-17)
(0.493411 0.498537 1.34161e-17)
(0.443063 0.445243 6.16825e-18)
(0.391175 0.396312 -4.40629e-18)
(0.350018 0.331091 1.78984e-19)
(0.311649 0.266857 8.63218e-18)
(0.284064 0.192578 -8.26985e-18)
(0.264232 0.117868 -2.95943e-18)
(0.253903 0.0389284 -1.5546e-17)
(0.253381 -0.0393943 -8.56775e-19)
(0.262408 -0.118586 2.56932e-17)
(0.282469 -0.192669 1.04809e-17)
(0.309142 -0.267605 2.33714e-17)
(0.346159 -0.330627 2.38771e-17)
(0.386127 -0.396439 1.22345e-17)
(0.4367 -0.444004 2.48872e-17)
(0.485469 -0.497932 1.98451e-17)
(0.544488 -0.528391 1.078e-17)
(0.59657 -0.56954 1.25022e-17)
(0.659168 -0.583058 1.49023e-17)
(0.709607 -0.612526 1.70939e-17)
(0.772332 -0.61094 2.13911e-17)
(0.817716 -0.631682 2.3868e-17)
(0.879904 -0.618422 2.94257e-17)
(0.926351 -0.636494 2.91489e-17)
(0.987243 -0.653477 2.35331e-17)
(1.05612 -0.662501 2.60627e-17)
(1.12932 -0.660004 1.75857e-17)
(1.20202 -0.643396 1.96273e-17)
(1.26896 -0.611703 1.18692e-17)
(1.32481 -0.565958 1.88646e-17)
(1.36514 -0.509143 2.16708e-17)
(1.38722 -0.445832 2.42057e-17)
(1.39063 -0.381315 1.65125e-17)
(1.37687 -0.320619 1.95406e-17)
(1.34879 -0.267323 1.08414e-17)
(1.30947 -0.223049 4.5535e-18)
(1.26165 -0.187246 5.17465e-18)
(1.20703 -0.158121 5.84414e-18)
(1.14647 -0.133368 8.89187e-18)
(1.08 -0.111404 7.9731e-18)
(1.00759 -0.0916405 9.5659e-18)
(0.928894 -0.0748822 3.48569e-18)
(0.843589 -0.062664 2.80146e-19)
(0.750904 -0.0570729 1.01674e-17)
(0.650283 -0.0598343 7.1043e-18)
(0.542131 -0.0719905 -1.37926e-18)
(0.430187 -0.093913 -3.8029e-18)
(0.323674 -0.124662 6.4648e-18)
(0.238294 -0.163393 9.00019e-18)
(0.192572 -0.206243 6.78024e-18)
(0.195601 -0.247366 1.13603e-17)
(0.240451 -0.281751 2.70614e-17)
(0.310397 -0.305371 3.54192e-17)
(0.408805 -0.304901 4.36048e-17)
(0.517564 -0.351716 4.30396e-17)
(0.627902 -0.368777 4.16902e-17)
(0.681455 -0.391298 1.86794e-17)
(0.683478 -0.420243 1.10013e-17)
(0.643482 -0.462203 -9.74013e-18)
(0.574449 -0.518784 -1.02417e-17)
(0.485769 -0.590048 -2.97123e-17)
(0.383151 -0.675018 -3.62332e-17)
(0.269307 -0.771633 2.35274e-17)
(0.146314 -0.876586 8.77029e-19)
(0.018043 -0.986766 5.24658e-18)
(-0.107804 -1.09679 1.6876e-17)
(-0.216436 -1.19392 -3.03425e-17)
(-0.289124 -1.27021 -1.02372e-17)
(-0.319996 -1.32683 -2.17083e-17)
(-0.315004 -1.34978 2.83609e-17)
(-0.281724 -1.3386 -1.91779e-17)
(-0.21951 -1.31461 1.66835e-17)
(-0.138699 -1.28665 2.25618e-17)
(-0.0571946 -1.25572 3.41625e-17)
(0.0280735 -1.2207 -9.19111e-18)
(0.128647 -1.18236 9.66474e-18)
(0.238757 -1.14453 1.64159e-17)
(0.34514 -1.10394 7.81152e-18)
(0.44681 -1.05694 8.56741e-18)
(0.549646 -1.00737 2.71998e-17)
(0.653388 -0.961584 1.42464e-17)
(0.752652 -0.921099 3.52101e-17)
(0.84664 -0.891304 1.81085e-17)
(0.803748 -0.867183 3.02792e-17)
(0.928131 -0.804813 1.83758e-17)
(0.996435 -0.777936 2.66329e-17)
(1.09481 -0.720935 2.62439e-17)
(1.15139 -0.672508 1.38654e-17)
(1.2211 -0.614149 3.80784e-18)
(1.2654 -0.557055 1.24863e-17)
(1.31287 -0.500793 8.81608e-18)
(1.34718 -0.44608 1.35961e-17)
(1.3818 -0.394439 1.16329e-17)
(1.41117 -0.343543 1.58746e-17)
(1.43983 -0.294372 1.43445e-17)
(1.46664 -0.244026 2.12102e-17)
(1.49233 -0.192672 -5.49594e-19)
(1.51658 -0.138565 8.68838e-18)
(1.53885 -0.0809077 3.71759e-20)
(1.55791 -0.0182397 2.05641e-17)
(1.57182 0.0503177 1.00708e-17)
(1.57807 0.124918 5.51822e-18)
(1.57398 0.204697 6.23354e-18)
(1.55683 0.287716 -4.83624e-18)
(1.52426 0.36929 4.17708e-18)
(1.47556 0.445025 -2.63637e-18)
(1.41239 0.509868 -1.18629e-18)
(1.338 0.560289 5.37265e-18)
(1.25695 0.594152 5.60341e-18)
(1.174 0.611275 1.01192e-17)
(1.09378 0.613148 -2.27632e-18)
(1.02064 0.602826 6.08295e-18)
(0.957901 0.584554 3.20152e-18)
(0.912129 0.566065 4.97247e-18)
(0.850893 0.583035 -1.7899e-18)
(0.807125 0.563464 8.04015e-19)
(0.746021 0.568294 -3.77288e-18)
(0.697039 0.541122 -1.3821e-18)
(0.636238 0.530363 2.02767e-18)
(0.585398 0.492743 9.96676e-18)
(0.528075 0.46484 1.41226e-17)
(0.480343 0.415577 1.182e-17)
(0.43122 0.37068 2.1718e-18)
(0.392099 0.309982 -4.73392e-18)
(0.355657 0.250249 1.24066e-17)
(0.329046 0.180549 8.76506e-18)
(0.310124 0.110549 -8.63874e-19)
(0.300154 0.0362827 -1.96062e-18)
(0.299565 -0.0373439 1.42575e-17)
(0.308319 -0.111923 1.44252e-17)
(0.327511 -0.181487 7.27581e-18)
(0.352973 -0.251736 2.82416e-17)
(0.387824 -0.310374 2.04432e-17)
(0.425998 -0.371797 1.75276e-17)
(0.473671 -0.415385 1.25666e-17)
(0.519939 -0.465684 9.99068e-18)
(0.575267 -0.492662 2.29345e-17)
(0.624161 -0.53116 2.90028e-17)
(0.682503 -0.541719 2.37218e-17)
(0.729284 -0.569694 3.16175e-17)
(0.787584 -0.565635 3.44465e-17)
(0.829071 -0.586123 3.77231e-17)
(0.886994 -0.5707 4.06047e-17)
(0.929741 -0.590138 3.9706e-17)
(0.987027 -0.609121 3.51701e-17)
(1.05295 -0.620388 3.4201e-17)
(1.1245 -0.620409 3.0326e-17)
(1.19721 -0.606784 2.5093e-17)
(1.26622 -0.578692 2.04813e-17)
(1.32656 -0.537135 2.13075e-17)
(1.37383 -0.484988 1.86783e-17)
(1.40512 -0.426681 2.40354e-17)
(1.41973 -0.367363 1.81623e-17)
(1.41908 -0.311855 1.80601e-17)
(1.40625 -0.263362 1.89572e-17)
(1.38463 -0.223051 1.8801e-17)
(1.35727 -0.189815 1.0784e-17)
(1.32565 -0.161578 2.42631e-17)
(1.29022 -0.135905 1.57381e-17)
(1.24998 -0.111787 8.24544e-18)
(1.20422 -0.0891195 9.17151e-18)
(1.15161 -0.0697034 8.44473e-18)
(1.09227 -0.0552041 5.39713e-18)
(1.02579 -0.0479137 9.23797e-18)
(0.953966 -0.0481016 6.15566e-18)
(0.877859 -0.0558814 -1.59502e-18)
(0.801544 -0.0693379 4.16195e-18)
(0.728359 -0.0874516 3.43037e-18)
(0.665943 -0.10813 7.35541e-18)
(0.620074 -0.129687 1.92561e-17)
(0.597832 -0.149323 1.54226e-17)
(0.596644 -0.167528 1.82406e-17)
(0.625766 -0.173163 7.92552e-18)
(0.589628 -0.177491 1.35522e-17)
(0.54043 -0.25941 4.05902e-17)
(0.56358 -0.291164 4.16228e-17)
(0.624118 -0.317073 2.88199e-17)
(0.691622 -0.333153 2.30491e-17)
(0.739814 -0.346688 4.5707e-17)
(0.756962 -0.36371 2.94368e-17)
(0.740086 -0.389607 -2.21775e-18)
(0.691082 -0.428003 5.2741e-17)
(0.614046 -0.480456 -7.74362e-18)
(0.514773 -0.54742 -6.14347e-17)
(0.40017 -0.628591 -8.76538e-17)
(0.277313 -0.723607 -9.28378e-17)
(0.150234 -0.833048 -3.93337e-17)
(0.0148371 -0.951418 -4.21042e-17)
(-0.131731 -1.06151 -5.12197e-17)
(-0.25955 -1.15425 1.7439e-17)
(-0.324261 -1.23617 -2.2199e-17)
(-0.310406 -1.28803 -4.36009e-18)
(-0.250771 -1.29601 3.7511e-17)
(-0.178903 -1.26386 5.13683e-17)
(-0.0905208 -1.21263 1.56258e-17)
(0.026114 -1.1669 2.80547e-17)
(0.146829 -1.13204 1.25831e-17)
(0.248531 -1.09842 2.8849e-17)
(0.343839 -1.05498 8.52267e-18)
(0.444702 -0.999389 3.91589e-17)
(0.541723 -0.9429 5.65317e-18)
(0.630842 -0.897167 4.80064e-17)
(0.718699 -0.868705 1.97265e-17)
(0.614563 -0.753079 1.46158e-17)
(0.754579 -0.744412 1.88589e-17)
(0.840025 -0.73164 1.42704e-17)
(0.955043 -0.71223 1.66508e-17)
(1.03748 -0.676992 1.45281e-17)
(1.1228 -0.638991 3.89524e-18)
(1.19102 -0.589456 9.13581e-18)
(1.25134 -0.539759 4.05926e-18)
(1.30185 -0.485825 1.06031e-17)
(1.34431 -0.433492 1.60976e-18)
(1.38174 -0.380465 7.43835e-18)
(1.41449 -0.328658 -3.94991e-18)
(1.44471 -0.27673 1.64348e-17)
(1.47257 -0.224037 1.53076e-17)
(1.49856 -0.16957 1.28552e-17)
(1.52219 -0.112058 1.35518e-17)
(1.54252 -0.0501633 1.22781e-17)
(1.55764 0.0173152 1.48246e-17)
(1.56498 0.0907453 7.50576e-18)
(1.56161 0.169294 1.1464e-17)
(1.5449 0.250619 6.05133e-18)
(1.5125 0.331446 1.22051e-17)
(1.46389 0.406353 1.18479e-17)
(1.40095 0.47053 1.75277e-17)
(1.32725 0.520129 2.08562e-17)
(1.24749 0.553021 9.80941e-18)
(1.16646 0.568988 9.83936e-18)
(1.08883 0.569544 -3.93323e-18)
(1.01894 0.557885 1.37351e-17)
(0.959763 0.538466 3.51421e-18)
(0.917587 0.519339 1.08017e-17)
(0.860911 0.53791 4.55392e-18)
(0.82094 0.519304 5.87937e-18)
(0.764299 0.526045 7.35565e-19)
(0.718949 0.501008 -2.38387e-18)
(0.662268 0.49264 -5.38195e-18)
(0.614575 0.458093 -2.76386e-18)
(0.560694 0.433158 5.85191e-18)
(0.51542 0.387665 9.41951e-18)
(0.468912 0.346428 1.30742e-17)
(0.431717 0.289943 2.05888e-18)
(0.397266 0.234474 6.74807e-18)
(0.371623 0.169103 8.31014e-18)
(0.3536 0.103554 1.08914e-17)
(0.344 0.0337373 -4.33184e-18)