/*--------------------------------*- C++ -*----------------------------------*\
| =========                 |                                                 |
| \\      /  F ield         | OpenFOAM: The Open Source CFD Toolbox           |
|  \\    /   O peration     | Version:  3.0.1                                 |
|   \\  /    A nd           | Web:      www.OpenFOAM.org                      |
|    \\/     M anipulation  |                                                 |
\*---------------------------------------------------------------------------*/
FoamFile
{
    version     2.0;
    format      ascii;
    class       volScalarField;
    location    "100.632319425750282";
    object      p;
}
// * * * * * * * * * * * * * * * * * * * * * * * * * * * * * * * * * * * * * //

dimensions      [0 2 -2 0 0 0 0];

internalField   nonuniform List<scalar> 
8400
(
-0.27731
-0.25827
-0.245178
-0.238779
-0.238333
-0.241325
-0.245282
-0.248971
-0.252491
-0.256817
-0.263323
-0.273177
-0.287084
-0.304975
-0.325623
-0.34775
-0.369429
-0.388606
-0.403358
-0.412145
-0.413796
-0.40716
-0.391653
-0.367077
-0.333509
-0.291363
-0.24169
-0.186509
-0.128966
-0.0726408
-0.0188814
0.0346087
0.0932207
0.151735
0.212126
0.270171
0.327234
0.379642
0.428238
0.470012
0.505263
0.53186
0.549676
0.55765
0.555476
0.542902
0.519929
0.486827
0.443617
0.391733
0.330806
0.263535
0.188814
0.110533
0.0267963
-0.0575892
-0.145132
-0.230382
-0.316379
-0.396602
-0.477513
-0.564124
-0.655697
-0.747949
-0.836938
-0.920047
-0.99567
-1.06297
-1.12152
-1.17091
-1.21079
-1.24108
-1.2613
-1.27203
-1.27438
-1.2694
-1.25833
-1.2427
-1.224
-1.20362
-1.18278
-1.16235
-1.14286
-1.1245
-1.10735
-1.09138
-1.07638
-1.0623
-1.04932
-1.03764
-1.02789
-1.01957
-1.01289
-1.00819
-1.00584
-1.00618
-1.00916
-1.01411
-1.01971
-1.0242
-1.02562
-1.0221
-1.0121
-0.994542
-0.968943
-0.935685
-0.893637
-0.846086
-0.794115
-0.73895
-0.681963
-0.624831
-0.569673
-0.518478
-0.472252
-0.430893
-0.39358
-0.359431
-0.328296
-0.300742
-0.312364
-0.291453
-0.272676
-0.258397
-0.250283
-0.247813
-0.247849
-0.248138
-0.247964
-0.247731
-0.249352
-0.254613
-0.26369
-0.278986
-0.298632
-0.321351
-0.345428
-0.368581
-0.388295
-0.402201
-0.408298
-0.405154
-0.391739
-0.367578
-0.332726
-0.28776
-0.234112
-0.174615
-0.113434
-0.0541373
0.00104692
0.0527936
0.108263
0.163524
0.220737
0.27615
0.330807
0.381407
0.428375
0.469025
0.503343
0.529388
0.546818
0.554649
0.552487
0.540093
0.517484
0.484908
0.442543
0.391687
0.332304
0.26675
0.194485
0.118862
0.038768
-0.0417508
-0.12444
-0.204832
-0.285785
-0.363041
-0.445781
-0.537232
-0.634753
-0.734738
-0.831979
-0.922485
-1.00405
-1.07562
-1.13654
-1.18625
-1.22418
-1.24971
-1.26313
-1.26629
-1.261
-1.24878
-1.23143
-1.21067
-1.18835
-1.16588
-1.14435
-1.12424
-1.10578
-1.08883
-1.07321
-1.05852
-1.04475
-1.03188
-1.02036
-1.01028
-1.00367
-0.999071
-0.996895
-0.997483
-1.00089
-1.00666
-1.01391
-1.02143
-1.02785
-1.03173
-1.0317
-1.02653
-1.01515
-0.996765
-0.970867
-0.937053
-0.899439
-0.856871
-0.810033
-0.759616
-0.706322
-0.651596
-0.59721
-0.54524
-0.497495
-0.455073
-0.418214
-0.386359
-0.35859
-0.334192
-0.307935
-0.29172
-0.276371
-0.263735
-0.25609
-0.254059
-0.255917
-0.257548
-0.256368
-0.253125
-0.250061
-0.24988
-0.253701
-0.263596
-0.278875
-0.298837
-0.322082
-0.346353
-0.368707
-0.385929
-0.395028
-0.393717
-0.380519
-0.3548
-0.316767
-0.267504
-0.209228
-0.145551
-0.080991
-0.0194945
0.0337133
0.0820429
0.132698
0.183607
0.235994
0.28746
0.338138
0.385705
0.429823
0.468443
0.501007
0.525946
0.542568
0.550049
0.547868
0.535816
0.513942
0.482419
0.441697
0.392787
0.336216
0.273689
0.205643
0.134322
0.0599286
-0.0150554
-0.09088
-0.165058
-0.239056
-0.311112
-0.390944
-0.48546
-0.588051
-0.69431
-0.798707
-0.896502
-0.984572
-1.06106
-1.12472
-1.17464
-1.21014
-1.23122
-1.2396
-1.23775
-1.22752
-1.21109
-1.19088
-1.16902
-1.1473
-1.12674
-1.10798
-1.09098
-1.07578
-1.0618
-1.04907
-1.03717
-1.02682
-1.01777
-1.01152
-1.00663
-1.00797
-1.01217
-1.01836
-1.02594
-1.03471
-1.04436
-1.05423
-1.06342
-1.07083
-1.07527
-1.07553
-1.07044
-1.05895
-1.04031
-1.01414
-0.9807
-0.939622
-0.892648
-0.841307
-0.786904
-0.728882
-0.671328
-0.614356
-0.559013
-0.506732
-0.459852
-0.419291
-0.384867
-0.355167
-0.328855
-0.275757
-0.264747
-0.255667
-0.244238
-0.23909
-0.240208
-0.247514
-0.256105
-0.261203
-0.260673
-0.255972
-0.251692
-0.250484
-0.254297
-0.264119
-0.279891
-0.300481
-0.323705
-0.346365
-0.364635
-0.374727
-0.373613
-0.359388
-0.331402
-0.290253
-0.237737
-0.176822
-0.111519
-0.0463579
0.0145122
0.0645712
0.109261
0.155355
0.202216
0.250134
0.297766
0.344557
0.388986
0.430121
0.466517
0.497117
0.520778
0.536444
0.543496
0.541275
0.529616
0.508601
0.478303
0.439448
0.39273
0.339184
0.279913
0.216119
0.149188
0.0801708
0.0105195
-0.0591431
-0.127582
-0.195213
-0.261893
-0.337466
-0.431261
-0.534852
-0.643306
-0.751087
-0.853235
-0.945866
-1.02614
-1.09195
-1.14197
-1.17552
-1.193
-1.19796
-1.19209
-1.17799
-1.15859
-1.1367
-1.11439
-1.09322
-1.07371
-1.0564
-1.04069
-1.02686
-1.01421
-1.00384
-0.995032
-0.98962
-0.986139
-0.987038
-0.989173
-0.996885
-1.00683
-1.01815
-1.03046
-1.04368
-1.05734
-1.07042
-1.08169
-1.09006
-1.09463
-1.09451
-1.08878
-1.07657
-1.05733
-1.03085
-0.997187
-0.95672
-0.910397
-0.859407
-0.804891
-0.746857
-0.686526
-0.625027
-0.563856
-0.504823
-0.449945
-0.400985
-0.358903
-0.323778
-0.295086
-0.218349
-0.207294
-0.202646
-0.200069
-0.198445
-0.200019
-0.213687
-0.231883
-0.248459
-0.257853
-0.259426
-0.255895
-0.25148
-0.249989
-0.253993
-0.264489
-0.280934
-0.301351
-0.322449
-0.340038
-0.349816
-0.348198
-0.332918
-0.303315
-0.260327
-0.206288
-0.144625
-0.0794967
-0.0154339
0.0433467
0.0901219
0.131176
0.173316
0.216454
0.26053
0.304655
0.348021
0.389518
0.427934
0.462186
0.490932
0.513327
0.52807
0.534688
0.532424
0.521146
0.500957
0.471868
0.43479
0.390215
0.339467
0.283315
0.223348
0.160519
0.0962084
0.0314267
-0.0329454
-0.0961211
-0.158211
-0.219596
-0.29073
-0.381926
-0.484294
-0.592586
-0.701159
-0.804962
-0.899631
-0.981512
-1.04777
-1.09659
-1.1274
-1.14231
-1.14376
-1.13423
-1.11693
-1.09521
-1.07185
-1.04872
-1.02691
-1.0067
-0.988334
-0.971377
-0.956281
-0.942579
-0.93127
-0.921443
-0.914451
-0.908515
-0.905598
-0.903509
-0.907621
-0.919316
-0.937579
-0.95941
-0.981703
-1.00217
-1.01962
-1.03375
-1.04449
-1.05151
-1.0542
-1.05172
-1.04305
-1.02715
-1.00343
-0.971933
-0.933078
-0.887722
-0.837138
-0.782356
-0.724795
-0.664983
-0.603844
-0.542613
-0.48235
-0.424245
-0.369791
-0.321057
-0.279333
-0.242178
-0.142903
-0.122465
-0.109945
-0.106324
-0.113874
-0.127975
-0.149985
-0.178692
-0.208183
-0.232914
-0.247539
-0.252268
-0.250579
-0.247384
-0.247076
-0.252349
-0.263849
-0.280243
-0.298477
-0.314284
-0.323058
-0.320793
-0.304876
-0.27454
-0.230881
-0.176545
-0.115217
-0.0511947
0.0109201
0.0670892
0.110748
0.148336
0.186953
0.226693
0.267359
0.308301
0.348606
0.387403
0.423359
0.45559
0.482628
0.503796
0.517685
0.523877
0.521569
0.510648
0.491225
0.463295
0.427856
0.385324
0.337125
0.283908
0.227406
0.168352
0.108263
0.047892
-0.0117512
-0.07013
-0.127212
-0.183575
-0.250448
-0.338382
-0.438418
-0.545359
-0.653357
-0.757143
-0.85201
-0.933698
-0.998904
-1.04553
-1.07341
-1.08531
-1.08327
-1.07048
-1.05056
-1.02695
-1.00213
-0.977683
-0.954187
-0.931901
-0.910679
-0.890545
-0.871483
-0.85344
-0.836405
-0.81983
-0.803725
-0.787163
-0.771195
-0.7561
-0.74816
-0.753114
-0.769581
-0.79228
-0.816475
-0.839531
-0.860692
-0.879907
-0.896867
-0.911079
-0.921837
-0.928084
-0.928692
-0.922483
-0.908663
-0.886978
-0.857175
-0.819793
-0.776205
-0.727385
-0.67417
-0.618319
-0.561342
-0.503879
-0.445887
-0.387085
-0.328021
-0.270651
-0.219468
-0.174693
-0.0949639
-0.0744443
-0.0574123
-0.0477604
-0.0471655
-0.0545764
-0.0719812
-0.103537
-0.144012
-0.183664
-0.21462
-0.233083
-0.240342
-0.240834
-0.239867
-0.241788
-0.24886
-0.260947
-0.275713
-0.289163
-0.296583
-0.293663
-0.277449
-0.246978
-0.203361
-0.149408
-0.0890045
-0.0266256
0.0330916
0.0864492
0.12713
0.161565
0.196996
0.233654
0.271238
0.309274
0.3468
0.383098
0.416801
0.447129
0.472579
0.492558
0.505644
0.511415
0.509062
0.498477
0.479769
0.452951
0.419035
0.378447
0.3326
0.282149
0.228822
0.173261
0.117007
0.0606616
0.00530806
-0.0487088
-0.101226
-0.153013
-0.215791
-0.300161
-0.397246
-0.502096
-0.608698
-0.711496
-0.805438
-0.885827
-0.949051
-0.993065
-1.01797
-1.02648
-1.02116
-1.00556
-0.983473
-0.958161
-0.93177
-0.905508
-0.879611
-0.854221
-0.828987
-0.804103
-0.779169
-0.754336
-0.728931
-0.70289
-0.675637
-0.647387
-0.619057
-0.592911
-0.575321
-0.573523
-0.586262
-0.607058
-0.630648
-0.654526
-0.677545
-0.699478
-0.721043
-0.742701
-0.76351
-0.781333
-0.794656
-0.802379
-0.802355
-0.793316
-0.775424
-0.747955
-0.711045
-0.667123
-0.618443
-0.565797
-0.51013
-0.453299
-0.396385
-0.339465
-0.281833
-0.224828
-0.171026
-0.124349
-0.141489
-0.103966
-0.0703348
-0.0452463
-0.0289967
-0.0222893
-0.0275031
-0.0481496
-0.083164
-0.126027
-0.167233
-0.1989
-0.217962
-0.226368
-0.228851
-0.230464
-0.234872
-0.243383
-0.254778
-0.265711
-0.271615
-0.268007
-0.251641
-0.221327
-0.178114
-0.124909
-0.0657908
-0.00541629
0.0516209
0.102059
0.139881
0.171466
0.204029
0.237888
0.272678
0.308044
0.343025
0.377001
0.408624
0.43716
0.461122
0.479951
0.492269
0.497626
0.495223
0.484952
0.46692
0.441166
0.408685
0.369944
0.326296
0.278451
0.228062
0.175737
0.122992
0.0703447
0.0188923
-0.0311443
-0.0795287
-0.127159
-0.186007
-0.266635
-0.360347
-0.46256
-0.567186
-0.668384
-0.76073
-0.839221
-0.899928
-0.940811
-0.962973
-0.968262
-0.959938
-0.941871
-0.917841
-0.890793
-0.862563
-0.833949
-0.805048
-0.775755
-0.745745
-0.715075
-0.683387
-0.650891
-0.617077
-0.582371
-0.546594
-0.510919
-0.476632
-0.44695
-0.427855
-0.425362
-0.438173
-0.459832
-0.485054
-0.511395
-0.538354
-0.566177
-0.595483
-0.626549
-0.658335
-0.689295
-0.716306
-0.736072
-0.746545
-0.746246
-0.736358
-0.718854
-0.691947
-0.652766
-0.602528
-0.544373
-0.480418
-0.413886
-0.350173
-0.294703
-0.251163
-0.21994
-0.19598
-0.172857
-0.217924
-0.170811
-0.126219
-0.0869407
-0.0543932
-0.030744
-0.01908
-0.0227977
-0.0434915
-0.07821
-0.119252
-0.157499
-0.186328
-0.203878
-0.212513
-0.216683
-0.220675
-0.22701
-0.235686
-0.244274
-0.248633
-0.244286
-0.227786
-0.197735
-0.155101
-0.102863
-0.0452856
0.0128241
0.0670068
0.114487
0.149571
0.178568
0.208544
0.239858
0.272104
0.305012
0.337644
0.369455
0.399139
0.425989
0.44855
0.466272
0.477846
0.482794
0.480336
0.470362
0.452973
0.428237
0.397118
0.360133
0.318561
0.273173
0.225518
0.176204
0.126693
0.0774542
0.0295687
-0.01683
-0.0614677
-0.105311
-0.160406
-0.237202
-0.327257
-0.426418
-0.528621
-0.627778
-0.718102
-0.79435
-0.852395
-0.890376
-0.909403
-0.911623
-0.90056
-0.880224
-0.854242
-0.825246
-0.794742
-0.763252
-0.730767
-0.697022
-0.661791
-0.62504
-0.586735
-0.54732
-0.506929
-0.466563
-0.426692
-0.389083
-0.355254
-0.328793
-0.314616
-0.317108
-0.334451
-0.360263
-0.389925
-0.421168
-0.453084
-0.486204
-0.520938
-0.563857
-0.608799
-0.655441
-0.702207
-0.738417
-0.765317
-0.78284
-0.784813
-0.766118
-0.72848
-0.679003
-0.62497
-0.570852
-0.519184
-0.471547
-0.428044
-0.387578
-0.349234
-0.314084
-0.281693
-0.254587
-0.307773
-0.25706
-0.206431
-0.158904
-0.114852
-0.0769758
-0.0483336
-0.0325827
-0.03337
-0.0514489
-0.0826661
-0.118925
-0.151838
-0.17633
-0.191537
-0.199984
-0.205485
-0.211185
-0.218089
-0.22475
-0.227664
-0.222552
-0.205893
-0.176134
-0.134175
-0.0830585
-0.0272188
0.0284419
0.0796793
0.124215
0.156687
0.183327
0.210962
0.239956
0.26988
0.30052
0.330974
0.360758
0.388621
0.413881
0.435116
0.451778
0.462629
0.467175
0.464656
0.454962
0.438189
0.414426
0.384611
0.349298
0.309698
0.266629
0.22153
0.175026
0.128513
0.0824305
0.03782
-0.00524597
-0.0464766
-0.0868636
-0.138389
-0.211335
-0.297563
-0.393367
-0.492797
-0.589567
-0.677568
-0.751317
-0.806628
-0.841618
-0.857541
-0.856847
-0.843222
-0.820659
-0.792561
-0.761265
-0.728003
-0.693155
-0.656651
-0.61825
-0.577873
-0.535604
-0.491873
-0.447519
-0.403435
-0.361123
-0.321482
-0.28659
-0.257655
-0.237721
-0.230243
-0.238519
-0.260342
-0.290615
-0.325913
-0.367857
-0.414841
-0.467934
-0.528601
-0.590621
-0.656602
-0.72083
-0.771317
-0.811845
-0.84354
-0.867505
-0.879882
-0.876162
-0.855973
-0.821886
-0.776976
-0.725164
-0.670181
-0.61519
-0.562101
-0.512008
-0.465321
-0.422331
-0.382437
-0.357766
-0.392229
-0.341191
-0.287665
-0.237709
-0.187278
-0.141
-0.0993804
-0.0675642
-0.0492993
-0.0481986
-0.0635471
-0.0905085
-0.121007
-0.148139
-0.168132
-0.181007
-0.189126
-0.19544
-0.201544
-0.20683
-0.208512
-0.202668
-0.185837
-0.156384
-0.115169
-0.0652953
-0.0113464
0.0417442
0.0900107
0.131659
0.161646
0.186136
0.211643
0.238516
0.266314
0.294859
0.323289
0.351167
0.377312
0.401067
0.421045
0.436692
0.446843
0.450994
0.448408
0.438979
0.422799
0.399969
0.371407
0.337691
0.299968
0.25909
0.216394
0.172523
0.128801
0.0856522
0.0440602
0.0040553
-0.0340674
-0.0712948
-0.119437
-0.188571
-0.270892
-0.363131
-0.459518
-0.553621
-0.63906
-0.710085
-0.762434
-0.794564
-0.807478
-0.803971
-0.787841
-0.762963
-0.732493
-0.698512
-0.662074
-0.623527
-0.582861
-0.54003
-0.495175
-0.448706
-0.401538
-0.354898
-0.310244
-0.26923
-0.232999
-0.203408
-0.18051
-0.166288
-0.163936
-0.180169
-0.212014
-0.253331
-0.300386
-0.349324
-0.403594
-0.464607
-0.53424
-0.61269
-0.694624
-0.773559
-0.846397
-0.906395
-0.951277
-0.980143
-0.992373
-0.987941
-0.968224
-0.935291
-0.888423
-0.836918
-0.781376
-0.724304
-0.667962
-0.614177
-0.564622
-0.521077
-0.483115
-0.44572
-0.419175
-0.381176
-0.336549
-0.292684
-0.244497
-0.198046
-0.151395
-0.11097
-0.0792878
-0.0622316
-0.0611887
-0.0750159
-0.0979636
-0.123161
-0.144979
-0.161082
-0.171953
-0.179606
-0.185702
-0.190175
-0.190915
-0.184435
-0.167451
-0.138328
-0.097916
-0.049387
0.00255523
0.0530057
0.0983248
0.137173
0.164807
0.187328
0.210895
0.235823
0.261667
0.288275
0.31482
0.340908
0.365426
0.387749
0.40653
0.421209
0.430683
0.434447
0.431791
0.422614
0.407004
0.385071
0.357718
0.325529
0.289596
0.250793
0.210364
0.168969
0.12786
0.087444
0.0486426
0.0114565
-0.0238221
-0.0581574
-0.103104
-0.168506
-0.246906
-0.335451
-0.428594
-0.519804
-0.60248
-0.670637
-0.719988
-0.749184
-0.759159
-0.752892
-0.734222
-0.706873
-0.673769
-0.63679
-0.596915
-0.554565
-0.50996
-0.463358
-0.415198
-0.366342
-0.318074
-0.271831
-0.229188
-0.191758
-0.160876
-0.13691
-0.119545
-0.112179
-0.116828
-0.141837
-0.179344
-0.221709
-0.268327
-0.322307
-0.384912
-0.455454
-0.533403
-0.616125
-0.698156
-0.774665
-0.841491
-0.896884
-0.938528
-0.96462
-0.974787
-0.969999
-0.952066
-0.922762
-0.884182
-0.839007
-0.789504
-0.737475
-0.684283
-0.631287
-0.580587
-0.53523
-0.496445
-0.459696
-0.374217
-0.358963
-0.33615
-0.307921
-0.272568
-0.233511
-0.190788
-0.149336
-0.11192
-0.0845339
-0.0704373
-0.0711806
-0.0840115
-0.103697
-0.124278
-0.141697
-0.154647
-0.163795
-0.170377
-0.174517
-0.174623
-0.167651
-0.150568
-0.121812
-0.0822603
-0.0351611
0.0146909
0.062473
0.104904
0.141062
0.166475
0.18719
0.208982
0.23212
0.256162
0.280974
0.305766
0.330171
0.353146
0.374105
0.391742
0.405495
0.414317
0.417705
0.414977
0.406041
0.390982
0.369913
0.343726
0.313001
0.278776
0.241945
0.203663
0.164604
0.125946
0.0880824
0.0518674
0.0172844
-0.015385
-0.0470713
-0.0890092
-0.150786
-0.225301
-0.310085
-0.399838
-0.487977
-0.567729
-0.632923
-0.679232
-0.705412
-0.712478
-0.703459
-0.682174
-0.652198
-0.616263
-0.576111
-0.532738
-0.486786
-0.438814
-0.389416
-0.33947
-0.290262
-0.243127
-0.199398
-0.160747
-0.128429
-0.102681
-0.0838084
-0.072474
-0.0690228
-0.0737279
-0.104777
-0.14521
-0.190785
-0.240696
-0.293438
-0.349502
-0.41016
-0.475663
-0.543353
-0.609244
-0.669829
-0.722632
-0.76579
-0.797567
-0.816906
-0.823433
-0.817975
-0.801943
-0.777356
-0.746114
-0.71009
-0.670505
-0.628194
-0.583661
-0.537782
-0.492424
-0.450992
-0.417303
-0.39223
-0.300117
-0.302749
-0.299506
-0.288514
-0.26989
-0.243985
-0.211947
-0.175855
-0.139565
-0.107812
-0.0854407
-0.0755574
-0.0782756
-0.0904941
-0.10737
-0.124089
-0.137978
-0.148308
-0.155547
-0.159687
-0.159434
-0.152136
-0.13503
-0.106693
-0.0680592
-0.0224588
0.0252479
0.0703664
0.109994
0.143585
0.166908
0.185965
0.206128
0.227617
0.249991
0.273133
0.29629
0.319116
0.340628
0.360286
0.376829
0.389696
0.397891
0.400916
0.398115
0.389411
0.374884
0.354652
0.329591
0.300266
0.267677
0.232724
0.19648
0.159629
0.123278
0.0878015
0.0539903
0.0218166
-0.0084557
-0.0377145
-0.0768233
-0.1351
-0.205804
-0.286811
-0.373072
-0.458005
-0.534705
-0.596838
-0.640039
-0.663181
-0.667342
-0.655552
-0.631571
-0.59886
-0.56
-0.516656
-0.469979
-0.420931
-0.370378
-0.31937
-0.269326
-0.221558
-0.177183
-0.137814
-0.104452
-0.0769065
-0.055744
-0.0403659
-0.0316261
-0.0303507
-0.0337427
-0.0671957
-0.10268
-0.142992
-0.187426
-0.235146
-0.285197
-0.337136
-0.389975
-0.442062
-0.490759
-0.534102
-0.57043
-0.598797
-0.618371
-0.628892
-0.63036
-0.62329
-0.608654
-0.587889
-0.562624
-0.53441
-0.504432
-0.473108
-0.440224
-0.405548
-0.370151
-0.337049
-0.31162
-0.299285
-0.223406
-0.236949
-0.247034
-0.250202
-0.246044
-0.233702
-0.214324
-0.188155
-0.157982
-0.127218
-0.101389
-0.0843558
-0.0786063
-0.083097
-0.0947459
-0.109065
-0.122612
-0.133511
-0.141303
-0.145608
-0.145204
-0.137739
-0.120701
-0.0928397
-0.0551816
-0.0111353
0.0343966
0.076882
0.11381
0.144963
0.166326
0.183861
0.202527
0.222489
0.243319
0.264905
0.286535
0.307877
0.328006
0.346422
0.361917
0.373935
0.381528
0.384204
0.381334
0.372854
0.358842
0.33942
0.315445
0.287463
0.256442
0.223284
0.188978
0.154217
0.120039
0.0867998
0.0552279
0.0252866
-0.00278206
-0.0298132
-0.0662643
-0.121179
-0.188171
-0.265423
-0.348135
-0.429752
-0.503291
-0.562292
-0.602351
-0.622434
-0.623678
-0.609084
-0.58235
-0.546875
-0.50511
-0.45876
-0.409256
-0.357787
-0.305589
-0.254352
-0.205584
-0.160357
-0.120199
-0.0862129
-0.0581892
-0.0348423
-0.016957
-0.00294177
0.00435911
-0.00166242
-0.0122601
-0.0365103
-0.0639474
-0.0970514
-0.134158
-0.175196
-0.21885
-0.263785
-0.308248
-0.350277
-0.388095
-0.420081
-0.445192
-0.462736
-0.472592
-0.474947
-0.470493
-0.460097
-0.445018
-0.426327
-0.405394
-0.383248
-0.360676
-0.337705
-0.313972
-0.288952
-0.262741
-0.237426
-0.218555
-0.213682
-0.155385
-0.172817
-0.190065
-0.203015
-0.21013
-0.20967
-0.201985
-0.186595
-0.165231
-0.139655
-0.114561
-0.0942176
-0.082444
-0.08022
-0.0861896
-0.0969608
-0.109014
-0.11974
-0.127791
-0.132272
-0.131843
-0.124338
-0.107463
-0.0801357
-0.0435065
-0.00105913
0.0422911
0.0821943
0.116535
0.145384
0.164912
0.181053
0.19834
0.216888
0.236283
0.256418
0.276618
0.296567
0.315389
0.332623
0.347115
0.358318
0.365334
0.367676
0.364741
0.356478
0.342966
0.324329
0.301402
0.27471
0.245197
0.213754
0.181291
0.148511
0.116384
0.085245
0.055762
0.0278887
0.0018484
-0.0231328
-0.0570892
-0.108788
-0.172187
-0.245738
-0.324876
-0.403105
-0.473366
-0.529153
-0.566136
-0.583146
-0.581438
-0.564001
-0.534523
-0.49633
-0.451813
-0.402906
-0.351201
-0.298092
-0.245476
-0.195234
-0.148538
-0.10685
-0.0717657
-0.0429198
-0.0189363
0.00210694
0.0164477
0.0198294
0.0105736
-0.0151864
-0.0301318
-0.0442259
-0.0656537
-0.0919241
-0.122786
-0.156845
-0.193036
-0.229921
-0.265583
-0.29841
-0.326809
-0.349827
-0.366837
-0.377301
-0.381172
-0.378379
-0.369612
-0.355695
-0.33805
-0.318199
-0.297411
-0.276773
-0.256819
-0.238004
-0.219755
-0.200985
-0.18106
-0.161431
-0.146716
-0.144165
-0.0998055
-0.116432
-0.135625
-0.153557
-0.168302
-0.17721
-0.179583
-0.174255
-0.162076
-0.143817
-0.122356
-0.102319
-0.087385
-0.0801782
-0.0809565
-0.0876887
-0.0974054
-0.107241
-0.115158
-0.119707
-0.119302
-0.111842
-0.095214
-0.06848
-0.0329236
0.00788939
0.049069
0.0864591
0.11833
0.145007
0.162821
0.177685
0.193704
0.210941
0.229001
0.247781
0.266641
0.285281
0.302868
0.318979
0.332514
0.342935
0.349398
0.351422
0.348429
0.340376
0.32735
0.309474
0.287558
0.262106
0.234043
0.204241
0.173533
0.142634
0.112445
0.0832775
0.0557426
0.0297848
0.00561705
-0.0174711
-0.0490895
-0.0977246
-0.157664
-0.227592
-0.303154
-0.377964
-0.444857
-0.497367
-0.531322
-0.545272
-0.540578
-0.520307
-0.488151
-0.447352
-0.400448
-0.349577
-0.296353
-0.242708
-0.190976
-0.142561
-0.0988881
-0.0622107
-0.0326689
-0.00823443
0.0103535
0.015275
0.00605108
-0.0164844
-0.0457353
-0.0811532
-0.0883017
-0.0951362
-0.111858
-0.133507
-0.160448
-0.19041
-0.221966
-0.252771
-0.281617
-0.305926
-0.325124
-0.337766
-0.344168
-0.34421
-0.338486
-0.32751
-0.311742
-0.292378
-0.270441
-0.247577
-0.225059
-0.204074
-0.184999
-0.167331
-0.150629
-0.134511
-0.118666
-0.10332
-0.0917461
-0.0900028
-0.0557522
-0.0700049
-0.0880544
-0.106974
-0.125378
-0.140363
-0.150627
-0.154142
-0.150512
-0.140129
-0.12477
-0.107054
-0.0914988
-0.0812639
-0.0779872
-0.0808389
-0.0877741
-0.0961404
-0.103509
-0.107946
-0.107556
-0.100182
-0.0838642
-0.0577847
-0.0233351
0.0158206
0.0548527
0.0898152
0.119337
0.143969
0.160186
0.173881
0.188735
0.204756
0.221571
0.239085
0.256689
0.274097
0.290517
0.305564
0.318186
0.32786
0.333792
0.335516
0.33247
0.324626
0.312071
0.294932
0.273992
0.249734
0.223068
0.194833
0.165796
0.136684
0.108327
0.0810124
0.0552925
0.0311114
0.00868013
-0.0126553
-0.0420881
-0.0878136
-0.144433
-0.210833
-0.282848
-0.354214
-0.417745
-0.467015
-0.497827
-0.508726
-0.501078
-0.47805
-0.443316
-0.40016
-0.351376
-0.299139
-0.245331
-0.19251
-0.14268
-0.0972571
-0.0590739
-0.0297839
-0.00767322
0.00318649
-0.00574247
-0.037133
-0.0721563
-0.102889
-0.132201
-0.158782
-0.162202
-0.17814
-0.195567
-0.216641
-0.242381
-0.269215
-0.298258
-0.325187
-0.348729
-0.366214
-0.376235
-0.378682
-0.373372
-0.361443
-0.343392
-0.320579
-0.293997
-0.264708
-0.234309
-0.204186
-0.176132
-0.151068
-0.129887
-0.112473
-0.0976419
-0.0834739
-0.0695506
-0.0572075
-0.0485529
-0.047544
-0.0209265
-0.0329262
-0.0488478
-0.0664178
-0.085362
-0.103173
-0.11834
-0.128672
-0.132509
-0.12952
-0.120503
-0.107389
-0.0934432
-0.0820114
-0.076105
-0.0757947
-0.0799098
-0.0864311
-0.0929051
-0.0970121
-0.0965835
-0.0893164
-0.0733386
-0.0479697
-0.0146573
0.0228361
0.0597518
0.0923841
0.119678
0.142387
0.157122
0.169744
0.183527
0.198421
0.214074
0.230403
0.246832
0.263081
0.278399
0.292438
0.304193
0.313153
0.318578
0.320017
0.316927
0.309287
0.297192
0.280767
0.260768
0.237662
0.21234
0.185602
0.158158
0.130745
0.104121
0.0785426
0.0545132
0.0319857
0.0111719
-0.00853996
-0.0359361
-0.0789048
-0.13235
-0.195329
-0.263848
-0.331767
-0.391952
-0.437949
-0.465608
-0.47349
-0.462974
-0.437292
-0.400151
-0.355023
-0.304869
-0.25198
-0.198835
-0.14807
-0.101429
-0.0617834
-0.0326568
-0.014182
-0.00934616
-0.0259848
-0.0628681
-0.0990587
-0.119877
-0.145431
-0.17613
-0.207835
-0.237646
-0.270603
-0.304236
-0.341621
-0.375221
-0.409908
-0.440669
-0.469628
-0.490351
-0.501622
-0.501254
-0.490061
-0.469345
-0.440562
-0.405984
-0.366433
-0.32362
-0.278783
-0.23397
-0.191276
-0.152698
-0.119693
-0.0924331
-0.0707376
-0.0543597
-0.0420291
-0.030738
-0.0198667
-0.0126178
-0.0130285
0.00546817
-0.00454245
-0.0178414
-0.0329455
-0.0505008
-0.0687006
-0.0858972
-0.100444
-0.11023
-0.11377
-0.111056
-0.103189
-0.0924657
-0.0820619
-0.074457
-0.0718362
-0.0734649
-0.078001
-0.083342
-0.0869141
-0.0863556
-0.0792082
-0.0635826
-0.0389582
-0.00681784
0.0290267
0.063867
0.0942713
0.119463
0.140365
0.153725
0.165359
0.178159
0.192012
0.206581
0.2218
0.237126
0.252288
0.266565
0.279648
0.290582
0.298863
0.303804
0.304973
0.301848
0.294411
0.282762
0.267028
0.247939
0.225944
0.201915
0.176605
0.150679
0.124884
0.0998954
0.0759427
0.0534903
0.032509
0.0132053
-0.00500573
-0.0305097
-0.0708696
-0.121287
-0.180959
-0.246048
-0.310543
-0.367382
-0.410115
-0.434655
-0.439586
-0.426311
-0.398114
-0.358839
-0.312172
-0.261198
-0.208613
-0.157368
-0.109917
-0.0687464
-0.0380371
-0.019855
-0.0140829
-0.0276688
-0.0596552
-0.0905887
-0.106725
-0.115323
-0.132397
-0.169485
-0.222704
-0.279808
-0.346795
-0.411463
-0.480194
-0.543213
-0.596209
-0.639138
-0.671593
-0.693464
-0.699617
-0.68845
-0.66023
-0.618881
-0.568206
-0.511621
-0.452056
-0.390582
-0.32874
-0.268118
-0.211063
-0.159345
-0.115019
-0.0789077
-0.0503891
-0.0283933
-0.0129626
-0.00275255
0.00565503
0.0126512
0.0134689
0.0199527
0.0146446
0.00481437
-0.00730991
-0.0219058
-0.0386673
-0.0559079
-0.0720092
-0.0856161
-0.0945182
-0.0974797
-0.0948852
-0.0881957
-0.0797892
-0.0723365
-0.0682554
-0.0680133
-0.0706596
-0.0747322
-0.0776456
-0.0768493
-0.0698076
-0.0545591
-0.0306838
0.000253859
0.0344695
0.0672913
0.095569
0.118783
0.137994
0.150081
0.160803
0.172696
0.185588
0.199148
0.213324
0.227617
0.241759
0.255054
0.267232
0.277389
0.285026
0.289507
0.290423
0.28727
0.280035
0.268821
0.253755
0.235545
0.214622
0.191835
0.167887
0.14341
0.119153
0.0957056
0.0732735
0.0522972
0.0327672
0.0148729
-0.00195592
-0.0257048
-0.0635979
-0.111132
-0.167617
-0.229353
-0.290455
-0.343966
-0.383481
-0.40496
-0.407032
-0.391129
-0.360619
-0.319557
-0.271815
-0.220715
-0.169478
-0.121273
-0.0786614
-0.0449884
-0.0236434
-0.0141044
-0.0186584
-0.0412882
-0.0661243
-0.0764581
-0.0771686
-0.0828899
-0.117652
-0.179826
-0.261314
-0.366033
-0.429095
-0.516113
-0.591791
-0.670049
-0.735193
-0.787313
-0.823951
-0.844563
-0.845393
-0.823354
-0.780559
-0.722072
-0.655015
-0.583589
-0.510888
-0.437952
-0.365932
-0.296095
-0.230449
-0.171111
-0.120438
-0.0792726
-0.0470441
-0.0219672
-0.00316672
0.00916724
0.0166054
0.021842
0.0238959
0.0211523
0.0214144
0.0177191
0.00987988
-0.000565007
-0.0138779
-0.0296871
-0.0456859
-0.0607277
-0.0732708
-0.0811214
-0.0833381
-0.0808902
-0.0754878
-0.0691325
-0.0645578
-0.0630895
-0.0641604
-0.0669598
-0.0691555
-0.0680494
-0.0610635
-0.0462251
-0.0230995
0.0066289
0.0392322
0.070108
0.09636
0.117718
0.135351
0.146262
0.156137
0.167191
0.179198
0.191821
0.205018
0.218341
0.231527
0.243898
0.25522
0.264642
0.271671
0.275715
0.276394
0.273223
0.266187
0.255396
0.240979
0.223618
0.203729
0.182132
0.159482
0.136389
0.113592
0.091594
0.0705857
0.0509967
0.0328314
0.0162482
0.00068787
-0.0214332
-0.0569949
-0.101788
-0.15521
-0.213674
-0.271428
-0.321651
-0.358019
-0.376517
-0.375853
-0.35748
-0.324917
-0.282464
-0.234176
-0.183733
-0.134814
-0.0905913
-0.0537824
-0.0273441
-0.0118401
-0.00627504
-0.015416
-0.033363
-0.0395743
-0.0384909
-0.0543609
-0.0864792
-0.1355
-0.259908
-0.322879
-0.407585
-0.461013
-0.531295
-0.599347
-0.670045
-0.730955
-0.776232
-0.803976
-0.814834
-0.809347
-0.785151
-0.743016
-0.686199
-0.620479
-0.55023
-0.478547
-0.407118
-0.337377
-0.270948
-0.209715
-0.151195
-0.105829
-0.0692857
-0.0411827
-0.0199224
-0.00387422
0.00700784
0.0132886
0.0178178
0.0209534
0.0202895
0.0199586
0.0195467
0.0181058
0.0129256
0.00470107
-0.00778994
-0.0226376
-0.0376657
-0.051681
-0.0630773
-0.0696462
-0.0710672
-0.0689806
-0.0647273
-0.0604236
-0.0583469
-0.0582217
-0.0599218
-0.0613446
-0.0599197
-0.0529476
-0.0385213
-0.016168
0.0123689
0.0433818
0.0723884
0.0967185
0.116338
0.132501
0.142331
0.151419
0.161692
0.172881
0.184637
0.196917
0.209326
0.221617
0.23312
0.243632
0.252361
0.258818
0.262449
0.262906
0.259724
0.252887
0.242509
0.228719
0.212179
0.193285
0.172827
0.151417
0.129644
0.108231
0.0875937
0.0679217
0.0496412
0.0327576
0.0173886
0.00299071
-0.0176182
-0.0509783
-0.0931696
-0.143655
-0.198934
-0.253395
-0.300386
-0.333704
-0.349332
-0.346073
-0.32542
-0.291113
-0.247698
-0.199444
-0.150422
-0.104512
-0.0646389
-0.0331093
-0.0111506
0.00300238
0.00827365
0.00213646
-0.0040849
-0.00511933
-0.0159891
-0.0569109
-0.138799
-0.201128
-0.296987
-0.352524
-0.372968
-0.391497
-0.432543
-0.485638
-0.537503
-0.578738
-0.607037
-0.624942
-0.632992
-0.629446
-0.612332
-0.582376
-0.541716
-0.493293
-0.43949
-0.38246
-0.323626
-0.264886
-0.208285
-0.156002
-0.109734
-0.0711945
-0.0409883
-0.0189416
-0.00400549
0.00575583
0.0110078
0.0126146
0.0130534
0.0175635
0.0214625
0.0280552
0.0267308
0.0260293
0.0225183
0.017548
0.00899773
-0.00343158
-0.0176408
-0.0316059
-0.04453
-0.0545783
-0.0596141
-0.0605268
-0.0588517
-0.0557124
-0.0534874
-0.0531878
-0.0535922
-0.0541548
-0.0523869
-0.0454344
-0.0313954
-0.00984343
0.0175214
0.0469828
0.0741957
0.0967093
0.114699
0.129496
0.138337
0.146696
0.156238
0.166668
0.177621
0.189046
0.200596
0.212047
0.222736
0.232484
0.24056
0.246478
0.249722
0.249972
0.246787
0.240148
0.230172
0.21699
0.201242
0.183305
0.163937
0.143708
0.123196
0.103091
0.0837304
0.0653165
0.0482724
0.032588
0.0183392
0.00500819
-0.0141927
-0.0454765
-0.0852022
-0.13288
-0.18506
-0.236289
-0.280095
-0.31053
-0.323414
-0.317713
-0.295003
-0.259301
-0.215359
-0.167717
-0.120728
-0.0780817
-0.04212
-0.0142582
0.00607557
0.0207163
0.0275217
0.02601
0.0220735
0.00839323
-0.0371459
-0.103046
-0.187276
-0.248185
-0.27212
-0.274469
-0.249366
-0.251855
-0.28874
-0.330504
-0.363397
-0.386216
-0.403221
-0.416832
-0.426129
-0.429005
-0.423925
-0.409984
-0.387685
-0.358206
-0.32338
-0.284361
-0.242578
-0.199496
-0.156534
-0.11513
-0.0766001
-0.0425428
-0.0144142
0.00709599
0.0220597
0.0309161
0.0330553
0.0280168
0.0175778
0.0117929
-0.0250029
-0.00294709
0.0167953
0.0274764
0.0277636
0.0248293
0.0203544
0.0117029
-0.000821804
-0.0142724
-0.027065
-0.0388628
-0.0471277
-0.0508111
-0.0515356
-0.0501804
-0.048353
-0.0476969
-0.0477155
-0.0475445
-0.0453737
-0.0384729
-0.0248146
-0.0040718
0.022128
0.0500908
0.0755886
0.0963881
0.112853
0.12638
0.13432
0.142006
0.150864
0.160585
0.170797
0.181425
0.192166
0.20283
0.212756
0.221784
0.229244
0.234658
0.237539
0.237599
0.234418
0.227976
0.218391
0.205798
0.190814
0.173797
0.155469
0.136368
0.117056
0.0981861
0.0800241
0.0627983
0.0469212
0.0323536
0.0191362
0.00678817
-0.011099
-0.0404273
-0.0778217
-0.122823
-0.171995
-0.220076
-0.260916
-0.288488
-0.298767
-0.290782
-0.26628
-0.229548
-0.185506
-0.138984
-0.0943632
-0.0548398
-0.0219689
0.00365211
0.0233956
0.0375359
0.0430536
0.0381742
0.0231432
-0.0107926
-0.0894462
-0.151233
-0.195111
-0.207697
-0.192477
-0.166755
-0.135812
-0.14463
-0.174361
-0.201137
-0.221761
-0.2387