/*--------------------------------*- C++ -*----------------------------------*\
| =========                 |                                                 |
| \\      /  F ield         | OpenFOAM: The Open Source CFD Toolbox           |
|  \\    /   O peration     | Version:  3.0.1                                 |
|   \\  /    A nd           | Web:      www.OpenFOAM.org                      |
|    \\/     M anipulation  |                                                 |
\*---------------------------------------------------------------------------*/
FoamFile
{
    version     2.0;
    format      ascii;
    class       volVectorField;
    location    "100.632319425750282";
    object      U;
}
// * * * * * * * * * * * * * * * * * * * * * * * * * * * * * * * * * * * * * //

dimensions      [0 1 -1 0 0 0 0];

internalField   nonuniform List<vector> 
8400
(
(0.00404712 -0.16735 1.11502e-17)
(-0.0152854 -0.120484 1.50417e-17)
(-0.035168 -0.0704932 1.99949e-17)
(-0.0518389 -0.021751 2.4815e-17)
(-0.0618758 0.0204291 3.20111e-17)
(-0.0645513 0.0497211 3.12275e-17)
(-0.0624555 0.0615895 1.91062e-17)
(-0.0580574 0.0578715 1.7543e-17)
(-0.05221 0.0459 1.64446e-17)
(-0.044716 0.0336759 6.32919e-18)
(-0.0347198 0.0256255 -2.01995e-18)
(-0.0214507 0.0219791 -9.4954e-19)
(-0.00456449 0.0205398 5.46609e-19)
(0.016335 0.020211 2.25507e-18)
(0.0404678 0.0199971 4.06671e-18)
(0.0663671 0.0207727 1.32156e-18)
(0.0928512 0.0233135 -7.50362e-19)
(0.118998 0.0282512 2.72282e-19)
(0.144397 0.0359412 2.63228e-18)
(0.169265 0.0465538 3.71499e-18)
(0.194337 0.0603484 2.75732e-18)
(0.220242 0.0781437 -7.01355e-19)
(0.247012 0.100452 2.24968e-18)
(0.274541 0.127754 -4.18172e-19)
(0.30227 0.160579 -4.93164e-19)
(0.32884 0.199151 -4.91758e-19)
(0.351858 0.242566 -2.62345e-19)
(0.368499 0.287809 2.33906e-19)
(0.37761 0.329972 -2.07644e-19)
(0.381078 0.364624 -5.36916e-20)
(0.370814 0.386637 -3.37767e-19)
(0.326552 0.367899 5.16788e-21)
(0.298442 0.366449 7.16876e-19)
(0.255944 0.34815 8.51665e-19)
(0.223188 0.332945 2.0176e-18)
(0.184227 0.308123 -2.1893e-18)
(0.152439 0.283281 1.57982e-19)
(0.119086 0.25219 -1.03666e-18)
(0.0916425 0.219906 -3.2274e-18)
(0.0656956 0.18371 -1.39177e-18)
(0.0451076 0.145956 -1.2102e-18)
(0.0279548 0.105991 -1.10055e-18)
(0.0158943 0.0648244 2.41464e-18)
(0.00838695 0.0226205 4.73697e-18)
(0.00585586 -0.0202186 -6.34127e-18)
(0.00830252 -0.0632716 -6.26098e-18)
(0.015751 -0.106363 -7.77409e-18)
(0.0283915 -0.149287 -3.62944e-18)
(0.0455203 -0.191274 5.37725e-18)
(0.0683145 -0.232525 1.54031e-18)
(0.0943396 -0.27135 4.33102e-18)
(0.126845 -0.309606 4.56314e-18)
(0.160138 -0.343131 4.87877e-18)
(0.201403 -0.377055 5.35798e-18)
(0.239618 -0.402973 5.62727e-18)
(0.288235 -0.431269 7.74655e-18)
(0.327974 -0.446955 5.39143e-18)
(0.382193 -0.469666 7.58039e-18)
(0.417586 -0.469968 4.08925e-18)
(0.475824 -0.494591 1.03229e-17)
(0.492845 -0.470507 -1.04538e-18)
(0.495967 -0.432445 9.43126e-18)
(0.493424 -0.383992 6.74783e-18)
(0.482369 -0.329625 5.34065e-18)
(0.463361 -0.275627 6.52648e-18)
(0.439851 -0.226538 -6.38879e-18)
(0.415375 -0.184122 -7.37897e-18)
(0.392229 -0.148273 -8.72874e-18)
(0.371605 -0.118151 -2.8834e-18)
(0.353872 -0.0927617 6.48545e-18)
(0.339121 -0.0711427 5.67943e-18)
(0.325876 -0.0519045 -1.55617e-19)
(0.313207 -0.0348804 1.78153e-18)
(0.300255 -0.0201142 3.80236e-18)
(0.285609 -0.00786555 9.12777e-18)
(0.26833 0.00147333 -8.49266e-18)
(0.247574 0.00762567 -1.51621e-18)
(0.223269 0.0107434 1.8403e-18)
(0.195768 0.0108908 1.72313e-17)
(0.166095 0.00847962 1.00128e-17)
(0.135528 0.00393421 8.19536e-18)
(0.105623 -0.00207527 4.54702e-18)
(0.0776449 -0.00901622 -1.70916e-17)
(0.05256 -0.0163827 -2.97026e-17)
(0.0311442 -0.0231959 -9.19477e-18)
(0.0136844 -0.0284358 -2.21272e-18)
(9.21471e-05 -0.0328465 -1.78636e-17)
(-0.00920732 -0.0366114 -6.92258e-17)
(-0.0141745 -0.041194 -8.7745e-17)
(-0.015108 -0.046998 -5.69213e-17)
(-0.0160022 -0.0593337 2.46911e-17)
(-0.0155553 -0.0763456 3.98486e-17)
(-0.0148387 -0.100419 -3.99126e-18)
(-0.0147101 -0.131975 -3.18493e-17)
(-0.0152939 -0.170503 -9.08663e-17)
(-0.0163209 -0.21488 -1.86651e-17)
(-0.0172697 -0.26345 -5.89718e-17)
(-0.0175724 -0.31396 1.95228e-17)
(-0.0166554 -0.363863 3.28186e-17)
(-0.0139955 -0.410718 7.7168e-18)
(-0.00920138 -0.452513 2.40531e-17)
(-0.00198778 -0.487728 2.07412e-17)
(0.0078703 -0.515263 2.26092e-17)
(0.0205933 -0.534552 1.5935e-17)
(0.0364767 -0.545401 7.26951e-18)
(0.0556557 -0.548099 1.15095e-18)
(0.0781241 -0.543632 -2.31116e-17)
(0.1013 -0.533398 5.65689e-18)
(0.120667 -0.519115 -3.3153e-18)
(0.12967 -0.501543 -2.45453e-17)
(0.124264 -0.480576 6.23305e-18)
(0.108206 -0.455172 5.06635e-18)
(0.091781 -0.425893 1.9771e-17)
(0.0818222 -0.395821 3.18483e-17)
(0.076242 -0.367281 5.01344e-17)
(0.0711299 -0.340377 3.60151e-17)
(0.0645031 -0.313527 4.29654e-17)
(0.0546782 -0.284013 3.99371e-17)
(0.0407724 -0.250231 3.39466e-17)
(0.0235631 -0.212081 2.41872e-17)
(-0.0839815 -0.182245 -2.75648e-18)
(-0.113984 -0.184609 4.99697e-18)
(-0.140891 -0.167706 1.84985e-17)
(-0.158061 -0.132584 3.09623e-17)
(-0.158773 -0.0814151 2.83331e-17)
(-0.143105 -0.0244575 3.03526e-17)
(-0.118603 0.0249988 3.27179e-17)
(-0.0946106 0.0559071 3.55627e-17)
(-0.0742919 0.0633896 4.34111e-17)
(-0.0551031 0.0528135 3.29114e-17)
(-0.0319409 0.0354502 1.81636e-17)
(0.000110944 0.0205749 5.5707e-18)
(0.041746 0.0132988 1.19271e-18)
(0.0928558 0.0133492 4.24239e-18)
(0.152376 0.0175205 1.20049e-18)
(0.216633 0.0266971 -1.20551e-19)
(0.282495 0.0418166 -2.94207e-18)
(0.347514 0.0635734 9.7875e-19)
(0.410165 0.0923006 4.76437e-18)
(0.470078 0.127998 5.89752e-18)
(0.527664 0.170843 1.22381e-18)
(0.58325 0.221613 -2.776e-18)
(0.635763 0.280274 -4.75106e-18)
(0.682852 0.345863 -2.40698e-18)
(0.720948 0.415878 -1.28353e-18)
(0.746128 0.485885 -1.45501e-18)
(0.755855 0.550254 -3.03981e-18)
(0.750646 0.604042 1.42855e-18)
(0.734134 0.644857 -3.33227e-19)
(0.710334 0.673061 6.98826e-19)
(0.678148 0.687446 -2.16716e-19)
(0.599085 0.658618 -4.3111e-19)
(0.553631 0.654625 -1.2268e-18)
(0.478988 0.622403 -2.18389e-18)
(0.426352 0.597946 -3.09601e-18)
(0.35806 0.556119 -5.11971e-18)
(0.305244 0.513883 2.76139e-19)
(0.246356 0.46083 9.83839e-19)
(0.199338 0.403853 -9.88177e-18)
(0.152966 0.340263 -4.85943e-18)
(0.11677 0.271879 -3.7904e-18)
(0.0856406 0.199698 -5.1629e-18)
(0.0638628 0.123812 8.58686e-18)
(0.0499728 0.0460819 -1.93736e-18)
(0.0451153 -0.0334068 -9.52808e-18)
(0.0492799 -0.113095 -1.79184e-17)
(0.0625021 -0.192768 -2.31296e-17)
(0.0851781 -0.270957 -7.38442e-18)
(0.115212 -0.347442 5.83808e-18)
(0.155758 -0.420361 9.56225e-18)
(0.200482 -0.489219 1.5603e-17)
(0.257561 -0.554112 1.18283e-17)
(0.31309 -0.611198 1.28979e-17)
(0.384432 -0.66601 1.53497e-17)
(0.445751 -0.707427 1.30954e-17)
(0.528527 -0.751282 1.52996e-17)
(0.589769 -0.773671 1.2432e-17)
(0.680781 -0.807921 1.84078e-17)
(0.735236 -0.80879 1.1322e-17)
(0.831952 -0.839079 1.9797e-17)
(0.874533 -0.821674 1.62221e-17)
(0.911579 -0.791106 1.72321e-17)
(0.943515 -0.747977 1.37681e-17)
(0.966703 -0.691472 1.6347e-17)
(0.977053 -0.623172 9.8867e-18)
(0.973314 -0.547285 1.95163e-17)
(0.957815 -0.469265 6.30646e-18)
(0.934855 -0.39388 2.63512e-18)
(0.909024 -0.324012 4.22073e-18)
(0.883568 -0.260448 4.7609e-18)
(0.860124 -0.202983 1.03386e-17)
(0.837159 -0.149802 -9.45216e-18)
(0.8148 -0.101043 1.59832e-17)
(0.7918 -0.0568691 1.48738e-17)
(0.765508 -0.0175677 1.52247e-17)
(0.734685 0.0165774 9.9761e-18)
(0.697931 0.0451714 1.08299e-17)
(0.655708 0.0686084 9.96185e-18)
(0.608295 0.0868976 1.44197e-17)
(0.557236 0.10075 1.24745e-17)
(0.503522 0.110177 3.12945e-17)
(0.449223 0.116039 2.41605e-17)
(0.395175 0.118234 1.59163e-17)
(0.343152 0.11794 4.27159e-17)
(0.293443 0.114684 3.63567e-17)
(0.247771 0.109914 6.74101e-17)
(0.206453 0.102059 1.32319e-17)
(0.173288 0.0926937 -3.46445e-17)
(0.148922 0.07838 -3.97724e-17)
(0.140688 0.0668964 -3.71455e-17)
(0.12685 0.0405756 -2.78138e-17)
(0.125856 0.00935833 -2.58809e-17)
(0.130592 -0.0213928 -5.20586e-17)
(0.132192 -0.051856 -1.78965e-17)
(0.127703 -0.0829596 2.50852e-17)
(0.117762 -0.114927 3.02642e-17)
(0.104127 -0.146827 5.45873e-17)
(0.0883259 -0.177762 1.75805e-17)
(0.0715096 -0.207124 -8.85778e-18)
(0.0545072 -0.234565 -4.53327e-17)
(0.0378829 -0.259767 -5.87906e-17)
(0.0220404 -0.28234 3.96831e-17)
(0.00731222 -0.301658 7.18215e-17)
(-0.00601125 -0.316995 1.03228e-16)
(-0.017585 -0.327649 4.9148e-17)
(-0.0271213 -0.332818 7.54261e-17)
(-0.0340619 -0.332811 1.23549e-17)
(-0.037636 -0.327152 1.67191e-17)
(-0.0375083 -0.314642 9.51838e-18)
(-0.0339607 -0.295419 -5.42481e-18)
(-0.0273721 -0.270804 -3.3318e-17)
(-0.0173092 -0.24379 6.04873e-18)
(-0.00370557 -0.216285 -3.45643e-18)
(0.0130683 -0.189555 1.13889e-17)
(0.0312736 -0.166212 1.2742e-17)
(0.0460338 -0.149443 8.48836e-18)
(0.0486971 -0.142169 3.07768e-17)
(0.0311094 -0.145191 3.21159e-17)
(-0.00518959 -0.155465 1.86036e-17)
(-0.0479165 -0.169101 4.45018e-18)
(-0.112306 -0.0258378 3.06717e-17)
(-0.139917 -0.0747304 3.03313e-17)
(-0.182856 -0.119124 1.04376e-17)
(-0.21837 -0.142091 2.3534e-17)
(-0.222782 -0.131482 2.42722e-17)
(-0.192409 -0.08928 2.17818e-17)
(-0.140371 -0.0312764 2.56407e-17)
(-0.0861402 0.0215468 3.17524e-17)
(-0.0412843 0.0559136 3.89555e-17)
(-0.00408188 0.0687194 4.46967e-17)
(0.0338804 0.0641883 4.02701e-17)
(0.0821602 0.0523073 2.13942e-17)
(0.144659 0.0433789 3.15166e-18)
(0.220506 0.0408737 1.92377e-18)
(0.306775 0.0456387 -2.33363e-18)
(0.398349 0.0586789 -3.17089e-19)
(0.49084 0.0805285 -4.19811e-18)
(0.58079 0.111785 4.52172e-18)
(0.66574 0.152774 8.11923e-18)
(0.744199 0.203338 5.56509e-18)
(0.815168 0.263028 8.41263e-18)
(0.877079 0.330916 2.68119e-18)
(0.927042 0.404776 -2.08492e-18)
(0.9615 0.480679 1.48955e-18)
(0.977328 0.553257 1.71862e-19)
(0.973298 0.616685 8.72033e-19)
(0.951111 0.666182 1.49723e-18)
(0.91523 0.699429 2.23989e-18)
(0.871254 0.717215 1.91184e-18)
(0.823864 0.722611 2.44307e-18)
(0.778294 0.719193 1.97593e-18)
(0.700975 0.708172 1.0363e-18)
(0.649044 0.693227 1.04363e-18)
(0.573892 0.672819 -2.27783e-19)
(0.515874 0.641953 1.24837e-18)
(0.444438 0.607314 -9.08647e-19)
(0.386392 0.55972 -8.51148e-18)
(0.32251 0.509203 -6.47389e-18)
(0.27056 0.446005 -1.18491e-17)
(0.218762 0.380311 -1.15447e-17)
(0.178355 0.3041 -5.65337e-18)
(0.142849 0.225752 -1.52627e-17)
(0.118158 0.140497 -1.93388e-17)
(0.102078 0.0538026 -4.92286e-18)
(0.0964745 -0.0357798 -1.33996e-17)
(0.101223 -0.12526 -3.18049e-17)
(0.116324 -0.214915 -1.00637e-17)
(0.142458 -0.301187 4.5724e-18)
(0.176222 -0.386685 1.83585e-17)
(0.222197 -0.463912 2.11354e-17)
(0.272036 -0.540308 2.34834e-17)
(0.335119 -0.604247 2.21015e-17)
(0.396524 -0.667524 2.12043e-17)
(0.472542 -0.715303 1.97902e-17)
(0.54013 -0.762509 1.75743e-17)
(0.624464 -0.793284 2.0479e-17)
(0.69223 -0.823067 1.59117e-17)
(0.780815 -0.838499 2.25235e-17)
(0.842848 -0.851652 1.05337e-17)
(0.933919 -0.857036 1.9638e-17)
(0.991148 -0.858327 1.0104e-17)
(1.05407 -0.85123 2.14305e-17)
(1.11669 -0.832299 1.5647e-17)
(1.17483 -0.797983 3.12294e-17)
(1.22347 -0.746656 2.1739e-17)
(1.25837 -0.679827 2.82182e-17)
(1.27809 -0.601582 1.17311e-17)
(1.28397 -0.517147 9.0413e-18)
(1.2795 -0.431369 1.22733e-17)
(1.26838 -0.347623 7.18345e-18)
(1.25342 -0.268146 1.60798e-17)
(1.23522 -0.193012 3.4629e-18)
(1.21575 -0.124251 2.94831e-17)
(1.19432 -0.0619537 2.1877e-17)
(1.16903 -0.00649044 2.23888e-17)
(1.13974 0.0423894 1.94571e-17)
(1.10543 0.0844725 1.83664e-17)
(1.0675 0.121022 1.35504e-17)
(1.02531 0.15192 3.11758e-17)
(0.98076 0.179079 2.47159e-17)
(0.932812 0.201467 2.77765e-17)
(0.884152 0.2215 2.29338e-17)
(0.832397 0.236532 2.83814e-17)
(0.781423 0.24971 1.03124e-17)
(0.727275 0.256493 9.62298e-18)
(0.676596 0.262914 2.08283e-17)
(0.622507 0.260945 -2.37635e-18)
(0.578917 0.26386 -9.53979e-18)
(0.526182 0.252781 -5.45166e-18)
(0.513433 0.266288 -3.35446e-17)
(0.435683 0.239155 -2.05335e-17)
(0.367319 0.20915 -2.60228e-17)
(0.325181 0.181406 -3.43898e-17)
(0.307222 0.156509 -3.46186e-17)
(0.303397 0.136736 1.77727e-17)
(0.302495 0.122805 8.72716e-17)
(0.297029 0.113634 1.88739e-17)
(0.28405 0.107459 8.51346e-17)
(0.263597 0.102438 6.48861e-17)
(0.237132 0.0973876 4.86925e-17)
(0.206408 0.0914689 2.31658e-17)
(0.173113 0.084174 8.64198e-17)
(0.138836 0.0755069 6.66879e-17)
(0.104872 0.0654343 1.30245e-18)
(0.0718489 0.0539051 -5.5123e-17)
(0.0393425 0.0401708 -3.49306e-17)
(0.0065797 0.0261027 -3.01699e-17)
(-0.0261568 0.0123026 -2.44818e-17)
(-0.0590255 -0.00285069 -2.26433e-17)
(-0.0918006 -0.0192943 -1.8619e-17)
(-0.122845 -0.035668 -9.96416e-18)
(-0.149213 -0.0498562 -6.3726e-18)
(-0.1669 -0.0584315 5.13843e-19)
(-0.173471 -0.0582756 6.3348e-18)
(-0.169409 -0.0482739 1.20083e-17)
(-0.157077 -0.0302875 1.80346e-17)
(-0.138815 -0.00961932 3.26801e-17)
(-0.120021 0.00772335 3.00654e-17)
(-0.107456 0.0152076 2.98152e-17)
(-0.105179 0.0138554 2.99945e-17)
(-0.118334 0.0652739 1.97848e-17)
(-0.118311 0.0221232 1.59597e-17)
(-0.163049 -0.0343333 2.44969e-17)
(-0.220825 -0.0933274 3.28572e-17)
(-0.244392 -0.12904 3.38233e-17)
(-0.213621 -0.1261 1.81441e-17)
(-0.138351 -0.086273 1.74186e-17)
(-0.0496413 -0.0318672 2.82782e-17)
(0.0276099 0.0167934 3.00547e-17)
(0.0898521 0.0489205 3.31126e-17)
(0.146941 0.0643892 3.25863e-17)
(0.211616 0.0684443 2.29194e-17)
(0.291768 0.0684586 1.26107e-17)
(0.386616 0.0709347 1.2774e-17)
(0.490834 0.0803618 7.474e-18)
(0.597952 0.098162 8.79315e-18)
(0.702694 0.124853 7.64084e-19)
(0.801209 0.160982 3.89651e-18)
(0.890676 0.206948 4.13193e-18)
(0.968824 0.262584 3.92469e-18)
(1.03349 0.326856 -9.04559e-19)
(1.082 0.397317 2.14233e-18)
(1.11144 0.469931 -6.02531e-19)
(1.11964 0.539421 2.14198e-18)
(1.10624 0.600197 7.51349e-18)
(1.07345 0.647551 2.78609e-18)
(1.02581 0.678655 3.85194e-18)
(0.969207 0.693197 2.56396e-18)
(0.909376 0.693406 4.7946e-18)
(0.85105 0.68299 3.67038e-18)
(0.801496 0.667744 3.72796e-18)
(0.733947 0.671121 1.87358e-18)
(0.682375 0.64939 3.37554e-18)
(0.614721 0.64059 -1.56936e-18)
(0.558422 0.607221 4.0401e-18)
(0.491818 0.58231 3.96207e-18)
(0.435538 0.534879 -4.7664e-18)
(0.374091 0.492233 -3.43727e-18)
(0.32334 0.430401 -7.76895e-18)
(0.272318 0.37053 -6.23645e-18)
(0.232486 0.295918 -3.91755e-18)
(0.196955 0.221306 -1.44841e-17)
(0.172346 0.137434 -1.3801e-17)
(0.156041 0.0528712 -5.6266e-18)
(0.150478 -0.0353865 -1.81369e-17)
(0.155384 -0.123203 -1.77218e-17)
(0.170702 -0.211471 6.23005e-18)
(0.197371 -0.295007 2.17214e-17)
(0.231021 -0.378794 1.46099e-17)
(0.277232 -0.45117 2.69958e-17)
(0.326583 -0.525681 2.5024e-17)
(0.38863 -0.582191 2.04089e-17)
(0.448819 -0.643827 1.64513e-17)
(0.521561 -0.681672 1.72034e-17)
(0.587276 -0.72843 1.86765e-17)
(0.665372 -0.747244 1.86309e-17)
(0.731192 -0.779202 1.71257e-17)
(0.810383 -0.780939 1.72796e-17)
(0.871701 -0.800432 1.71383e-17)
(0.950878 -0.789795 1.8218e-17)
(1.01195 -0.802306 1.84075e-17)
(1.08589 -0.810095 1.45238e-17)
(1.16463 -0.807388 2.01974e-17)
(1.24368 -0.789964 9.36824e-18)
(1.31795 -0.754839 2.76855e-17)
(1.38236 -0.701719 1.8625e-17)
(1.43332 -0.632869 1.72985e-17)
(1.46939 -0.552395 1.38553e-17)
(1.49144 -0.464899 2.07367e-17)
(1.50181 -0.374939 1.41002e-17)
(1.50258 -0.285954 3.42995e-17)
(1.49609 -0.20086 1.52718e-17)
(1.4851 -0.121731 2.00119e-17)
(1.46973 -0.0492279 1.23788e-17)
(1.44991 0.0160481 2.84501e-17)
(1.4267 0.0747638 1.4518e-17)
(1.39988 0.126729 1.92126e-17)
(1.37133 0.174196 2.62425e-17)
(1.33972 0.216144 2.82555e-17)
(1.30779 0.25651 1.55083e-17)
(1.27221 0.291601 2.35813e-17)
(1.23795 0.327692 4.51948e-18)
(1.19794 0.356427 1.37731e-17)
(1.1627 0.389786 1.24021e-18)
(1.11834 0.411503 1.66548e-17)
(1.08631 0.445184 1.52174e-17)
(1.03748 0.459123 1.58897e-17)
(1.01644 0.500011 9.43246e-18)
(0.959359 0.50393 1.55983e-17)
(0.962475 0.563654 2.09513e-17)
(0.887122 0.552426 3.93245e-18)
(0.800251 0.535678 -1.07362e-17)
(0.712133 0.517221 8.9981e-18)
(0.627097 0.498072 -3.84107e-17)
(0.549688 0.480678 -9.56893e-18)
(0.482842 0.466925 2.46485e-18)
(0.426796 0.457139 3.9646e-19)
(0.379504 0.451115 6.50761e-18)
(0.337648 0.447894 1.03168e-17)
(0.297954 0.446332 2.80033e-18)
(0.257965 0.445517 1.38228e-17)
(0.2159 0.444006 -1.63857e-17)
(0.170937 0.441551 4.62713e-17)
(0.123233 0.437402 5.22928e-19)
(0.0743521 0.431023 -1.69837e-17)
(0.0270362 0.42195 -1.01629e-17)
(-0.0158353 0.409534 -3.52752e-17)
(-0.0530039 0.393899 1.24842e-17)
(-0.0846283 0.374733 -2.02026e-17)
(-0.112379 0.351533 -2.13132e-17)
(-0.138628 0.323703 -4.8542e-18)
(-0.164721 0.290874 -2.04883e-17)
(-0.190511 0.254848 -1.29829e-17)
(-0.213472 0.218846 -6.0015e-19)
(-0.228743 0.185075 2.96056e-18)
(-0.232883 0.156934 2.84054e-17)
(-0.224055 0.134472 2.75254e-17)
(-0.206034 0.121261 2.55981e-17)
(-0.181072 0.1066 3.93549e-17)
(-0.150617 0.109407 2.93381e-17)
(-0.102423 0.21935 5.43397e-17)
(-0.120726 0.164252 5.86479e-17)
(-0.17313 0.0988956 5.02935e-17)
(-0.219585 0.0209227 4.88591e-17)
(-0.235492 -0.0568907 4.35586e-17)
(-0.203314 -0.102255 3.14755e-17)
(-0.112123 -0.100738 2.8294e-17)
(0.012683 -0.0667089 3.3274e-17)
(0.130121 -0.0215143 3.11618e-17)
(0.22467 0.0188229 1.81335e-17)
(0.304862 0.0494133 2.02548e-17)
(0.38588 0.0696482 1.12957e-17)
(0.477654 0.0838249 1.28512e-17)
(0.580551 0.0971463 6.94378e-18)
(0.689002 0.113842 4.50243e-18)
(0.796217 0.136062 2.92531e-18)
(0.896964 0.164922 4.03426e-18)
(0.987828 0.201388 3.41571e-18)
(1.06636 0.246295 2.13279e-18)
(1.13025 0.299802 -4.51089e-18)
(1.17711 0.360711 6.59737e-18)
(1.2044 0.425917 6.80149e-18)
(1.21026 0.490784 5.89835e-19)
(1.19444 0.549996 3.56384e-18)
(1.15889 0.598665 7.75352e-18)
(1.10776 0.633316 7.11717e-18)
(1.04659 0.652448 6.69982e-18)
(0.981189 0.65676 6.64307e-18)
(0.916808 0.648858 8.7694e-18)
(0.857705 0.632346 8.68668e-18)
(0.810835 0.613811 8.9674e-18)
(0.748622 0.621729 6.31111e-18)
(0.701692 0.59919 9.01194e-18)
(0.638893 0.59477 4.42163e-18)
(0.587415 0.562604 5.58452e-18)
(0.525054 0.542529 4.94938e-18)
(0.472872 0.497855 2.90921e-18)
(0.414808 0.460522 6.04722e-19)
(0.367053 0.402432 -6.47065e-18)
(0.318428 0.348041 -1.02815e-17)
(0.280568 0.277688 1.47307e-18)
(0.246547 0.208305 -1.14649e-17)
(0.222973 0.128811 1.56717e-18)
(0.207185 0.0490445 -5.73435e-18)
(0.201911 -0.0347569 -2.92795e-18)
(0.20681 -0.117897 -1.57355e-17)
(0.221816 -0.201641 3.57133e-18)
(0.247864 -0.280184 1.0624e-17)
(0.280255 -0.359214 1.24484e-17)
(0.325043 -0.426227 3.54486e-17)
(0.372271 -0.495971 1.66054e-17)
(0.431638 -0.546863 1.73973e-17)
(0.488505 -0.604017 1.77471e-17)
(0.557395 -0.636341 1.80317e-17)
(0.618517 -0.679494 1.78637e-17)
(0.691869 -0.693347 1.63776e-17)
(0.752152 -0.72322 1.64755e-17)
(0.826016 -0.720628 1.69131e-17)
(0.881794 -0.740002 1.71808e-17)
(0.955251 -0.72512 1.74424e-17)
(1.01296 -0.739899 1.90435e-17)
(1.08718 -0.752471 1.69899e-17)
(1.16991 -0.756133 1.9599e-17)
(1.25681 -0.746536 1.67855e-17)
(1.3429 -0.72025 2.80756e-17)
(1.42311 -0.675969 3.16088e-17)
(1.49288 -0.614561 1.86696e-17)
(1.54903 -0.539084 3.47067e-17)
(1.59026 -0.453366 3.91342e-17)
(1.61701 -0.362517 4.37623e-17)
(1.63071 -0.270085 1.88564e-17)
(1.63402 -0.181072 2.3987e-17)
(1.62931 -0.0972054 7.59279e-18)
(1.61792 -0.0198118 1.60455e-17)
(1.60151 0.050502 1.86328e-18)
(1.58146 0.114479 1.62203e-17)
(1.559 0.172247 1.21791e-17)
(1.53502 0.226262 7.55961e-18)
(1.50967 0.275118 2.05973e-17)
(1.48371 0.32371 -6.92795e-19)
(1.456 0.36637 1.29575e-17)
(1.42854 0.413145 1.6858e-17)
(1.39811 0.450342 1.05877e-17)
(1.37023 0.498511 -1.03062e-17)
(1.33711 0.530065 2.19261e-18)
(1.31061 0.5842 -1.33076e-17)
(1.27408 0.609553 -2.5776e-19)
(1.25096 0.6756 -1.43885e-17)
(1.20809 0.692788 2.08657e-18)
(1.19118 0.777845 -2.01993e-18)
(1.137 0.786879 3.11176e-18)
(1.07321 0.799354 -8.75782e-18)
(1.00465 0.814683 3.9408e-18)
(0.932372 0.829867 -1.65181e-17)
(0.857352 0.842498 2.56269e-18)
(0.780447 0.851427 -2.82771e-17)
(0.702286 0.856813 -1.29546e-17)
(0.623877 0.859736 -3.49312e-17)
(0.546726 0.861378 -6.01196e-18)
(0.471888 0.862274 -4.63015e-17)
(0.399099 0.862499 -2.53354e-17)
(0.327679 0.860866 -5.98814e-17)
(0.258518 0.856718 -3.84166e-17)
(0.192846 0.849156 -2.99388e-17)
(0.131229 0.837239 -1.16337e-17)
(0.0734414 0.819557 -4.02477e-17)
(0.0190096 0.795278 -1.67347e-17)
(-0.030765 0.765827 -3.37567e-17)
(-0.0743242 0.732628 -1.41302e-17)
(-0.110721 0.6966 7.86495e-18)
(-0.141736 0.657571 3.89273e-18)
(-0.169106 0.615767 1.66435e-17)
(-0.195525 0.569448 8.58629e-18)
(-0.218383 0.519045 1.46517e-17)
(-0.235125 0.464357 1.86106e-17)
(-0.240276 0.411301 3.17494e-17)
(-0.233621 0.35812 3.45253e-17)
(-0.213442 0.319371 4.574e-17)
(-0.173283 0.274656 3.79737e-17)
(-0.135505 0.281922 4.9473e-17)
(-0.269235 0.462801 3.35182e-17)
(-0.245459 0.381107 4.38413e-17)
(-0.197191 0.295057 5.45767e-17)
(-0.158489 0.195995 5.47708e-17)
(-0.150088 0.0922222 5.07768e-17)
(-0.133006 0.00471088 4.16347e-17)
(-0.0485619 -0.0475275 2.50251e-17)
(0.0983204 -0.0541204 2.31686e-17)
(0.253631 -0.0313976 2.22728e-17)
(0.384801 0.000811005 1.74879e-17)
(0.492045 0.0336706 1.55447e-17)
(0.588403 0.0641608 1.21617e-17)
(0.68489 0.0912635 1.26622e-17)
(0.783804 0.116107 4.5404e-18)
(0.881711 0.140482 5.02154e-18)
(0.973917 0.166137 5.59323e-18)
(1.0569 0.194827 7.2424e-18)
(1.12857 0.228447 7.04503e-18)
(1.18736 0.268741 7.99725e-18)
(1.23136 0.316524 1.17426e-18)
(1.25833 0.370847 4.36678e-18)
(1.26614 0.42867 5.60114e-18)
(1.25377 0.485447 4.36539e-18)
(1.22208 0.536189 7.93878e-18)
(1.1741 0.576561 7.2562e-18)
(1.11451 0.603723 8.18844e-18)
(1.04874 0.616675 8.93179e-18)
(0.982001 0.616283 9.03327e-18)
(0.918931 0.60489 8.23906e-18)
(0.863036 0.585782 8.12182e-18)
(0.820335 0.565886 8.86785e-18)
(0.761856 0.576132 5.87866e-18)
(0.719556 0.553823 3.79707e-18)
(0.66077 0.552078 8.19913e-18)
(0.613575 0.521414 5.55929e-18)
(0.555198 0.504654 1.00645e-17)
(0.506614 0.46269 7.35639e-18)
(0.452035 0.429337 9.83529e-18)
(0.407011 0.374944 2.44084e-18)
(0.361076 0.325072 -1.82469e-17)
(0.325132 0.259138 -1.14271e-17)
(0.293031 0.19459 1.35034e-18)
(0.270608 0.119809 -1.48925e-17)
(0.255559 0.0449013 -8.2895e-18)
(0.250587 -0.0341204 -1.94892e-17)
(0.255425 -0.112363 -3.964e-18)
(0.270066 -0.191248 2.65926e-17)
(0.295104 -0.264866 1.44345e-17)
(0.326223 -0.338881 2.30645e-17)
(0.36918 -0.401204 2.43725e-17)
(0.414289 -0.466023 1.16667e-17)
(0.470592 -0.512468 1.80128e-17)
(0.524458 -0.565208 1.77149e-17)
(0.58934 -0.59347 1.06509e-17)
(0.646623 -0.63327 1.35525e-17)
(0.715392 -0.643639 1.26919e-17)
(0.77107 -0.671497 1.55811e-17)
(0.840284 -0.665985 1.71101e-17)
(0.890905 -0.684669 1.71838e-17)
(0.960045 -0.66721 2.03291e-17)
(1.01309 -0.682896 1.95106e-17)
(1.08386 -0.697421 1.4046e-17)
(1.16498 -0.703595 2.35516e-17)
(1.25257 -0.697093 5.97803e-18)
(1.34183 -0.674558 2.60091e-17)
(1.4279 -0.634375 1.02742e-17)
(1.50594 -0.576778 2.52257e-17)
(1.57181 -0.5041 3.16674e-17)
(1.62281 -0.419896 4.17262e-17)
(1.65793 -0.329179 2.27837e-17)
(1.67805 -0.236482 3.10689e-17)
(1.68548 -0.146126 1.12763e-17)
(1.68248 -0.0607168 8.35584e-18)
(1.67111 0.0181071 8.80773e-18)
(1.6542 0.0900797 1.19066e-17)
(1.63297 0.155671 2.16867e-17)
(1.61007 0.215905 1.73314e-17)
(1.58446 0.272101 2.23454e-17)
(1.55933 0.324436 1.34826e-17)
(1.53054 0.375455 8.13321e-18)
(1.50419 0.42243 2.29606e-17)
(1.47161 0.471784 2.14253e-17)
(1.44465 0.5146 2.21761e-17)
(1.40748 0.565744 1.58646e-17)
(1.38021 0.604616 2.28661e-17)
(1.33671 0.661124 2.69878e-17)
(1.30826 0.694496 3.1256e-17)
(1.25643 0.759521 2.09537e-17)
(1.22449 0.784077 2.40621e-17)
(1.16443 0.863193 1.84733e-17)
(1.12398 0.880271 2.73583e-17)
(1.07895 0.909206 1.66546e-17)
(1.02975 0.945948 2.87277e-17)
(0.975655 0.985171 2.71013e-17)
(0.916248 1.02263 2.44635e-17)
(0.851938 1.05622 2.17152e-17)
(0.783502 1.08583 1.90542e-17)
(0.711581 1.11161 1.81663e-17)
(0.636925 1.13305 3.50032e-17)
(0.560946 1.15084 1.42696e-17)
(0.486221 1.16508 3.41764e-17)
(0.41337 1.17416 2.32195e-18)
(0.339834 1.17675 3.94905e-17)
(0.266777 1.17323 3.22528e-17)
(0.199172 1.16497 3.59014e-17)
(0.138709 1.15161 2.8312e-17)
(0.0827984 1.12954 2.93469e-17)
(0.0304759 1.09874 3.37458e-17)
(-0.0175251 1.06311 3.26542e-17)
(-0.0604222 1.02308 2.0998e-17)
(-0.0995696 0.975303 2.23306e-17)
(-0.130577 0.919726 3.57446e-17)
(-0.152161 0.860577 3.70661e-17)
(-0.161491 0.802317 4.63251e-17)
(-0.174801 0.74896 5.92502e-17)
(-0.184561 0.702387 3.82224e-17)
(-0.205619 0.660103 3.84573e-17)
(-0.203294 0.630602 3.99222e-17)
(-0.230295 0.583034 4.19331e-17)
(-0.252383 0.555891 3.70445e-17)
(0.0791452 0.542676 8.98615e-17)
(0.094565 0.472612 7.01706e-17)
(0.102944 0.390427 6.01992e-17)
(0.0880666 0.301427 5.79822e-17)
(0.0412256 0.203044 5.58664e-17)
(0.0145481 0.105823 4.57662e-17)
(0.0773979 0.0350968 3.07135e-17)
(0.227063 0.00265029 2.11819e-17)
(0.402303 -0.00216695 1.73115e-17)
(0.557948 0.00896042 1.41221e-17)
(0.685345 0.0311167 1.27836e-17)
(0.791455 0.0608911 1.18384e-17)
(0.885096 0.0938726 1.10353e-17)
(0.970653 0.126298 2.44353e-18)
(1.04816 0.156415 4.06747e-18)
(1.11645 0.184394 2.54648e-18)
(1.17483 0.211972 1.03637e-17)
(1.22307 0.241842 9.09981e-18)
(1.26055 0.276707 6.03852e-18)
(1.28574 0.318174 6.61541e-18)
(1.29641 0.365806 5.53971e-18)
(1.29046 0.416993 6.57316e-18)
(1.26702 0.467484 6.63625e-18)
(1.22717 0.512535 8.13416e-18)
(1.17401 0.547967 1.07515e-17)
(1.11202 0.571034 1.14154e-17)
(1.04612 0.580704 1.3765e-17)
(0.981041 0.577652 1.14463e-17)
(0.92094 0.563973 1.36832e-17)
(0.86865 0.542865 1.43517e-17)
(0.829568 0.521639 1.63222e-17)
(0.775094 0.533994 1.16484e-17)
(0.736552 0.511934 7.36524e-18)
(0.681916 0.512603 4.47105e-18)
(0.638274 0.483383 2.47647e-18)
(0.5839 0.46956 -6.59238e-19)
(0.538431 0.430136 1.43529e-17)
(0.487299 0.400266 1.29919e-17)
(0.444688 0.349312 1.0519e-17)
(0.401399 0.303434 -9.66879e-18)
(0.367132 0.241655 -1.96982e-17)
(0.336998 0.181553 2.68469e-18)
(0.315725 0.111317 5.49403e-19)
(0.301482 0.0410175 -6.90229e-18)
(0.296791 -0.0334059 -6.66165e-18)
(0.30155 -0.106976 1.26232e-17)
(0.315833 -0.181189 1.71268e-17)
(0.339744 -0.250141 1.03223e-17)
(0.369722 -0.319422 2.53149e-17)
(0.410764 -0.377427 1.7941e-17)
(0.453819 -0.437545 1.38306e-17)
(0.507076 -0.480059 9.43832e-18)
(0.558194 -0.52858 8.29001e-18)
(0.61921 -0.553418 1.57778e-17)
(0.673123 -0.589986 1.99482e-17)
(0.737356 -0.597436 1.67966e-17)
(0.789183 -0.623273 2.15794e-17)
(0.853485 -0.615233 2.07473e-17)
(0.899888 -0.633175 2.29786e-17)
(0.964155 -0.613441 2.55996e-17)
(1.01314 -0.630086 2.31167e-17)
(1.08017 -0.646157 2.64567e-17)
(1.15828 -0.654046 2.46933e-17)
(1.244 -0.649211 2.51544e-17)
(1.33265 -0.628366 1.73347e-17)
(1.41944 -0.589779 1.13117e-17)
(1.4995 -0.533712 1.89255e-17)
(1.5682 -0.461984 1.4796e-17)
(1.62208 -0.378575 2.99449e-17)
(1.65949 -0.287871 1.45666e-17)
(1.68056 -0.195754 1.67846e-17)
(1.68751 -0.105748 2.20796e-17)
(1.68267 -0.0208174 3.07806e-17)
(1.66872 0.0573995 1.32467e-17)
(1.64857 0.128838 4.66917e-17)
(1.62405 0.194001 3.54585e-17)
(1.5973 0.254399 1.57421e-17)
(1.56772 0.310387 1.97019e-17)
(1.53787 0.363667 2.0584e-17)
(1.50378 0.413828 2.04543e-17)
(1.47183 0.46246 2.25509e-17)
(1.43181 0.509525 2.06158e-17)
(1.39844 0.554993 7.1935e-18)
(1.35018 0.601452 6.88666e-18)
(1.31545 0.643449 6.06126e-18)
(1.25539 0.690736 -4.05507e-18)
(1.21942 0.725907 9.81999e-18)
(1.14406 0.774999 5.9506e-18)
(1.10756 0.798702 1.02251e-17)
(1.01661 0.855215 3.05916e-18)
(0.977541 0.868939 -5.41036e-18)
(0.937922 0.899866 -1.10328e-18)
(0.896585 0.942251 4.12525e-20)
(0.852512 0.989124 5.9596e-18)
(0.803922 1.03584 1.22638e-17)
(0.750182 1.08074 1.09576e-17)
(0.693289 1.12164 2.9335e-17)
(0.634584 1.15733 1.38123e-17)
(0.572169 1.19037 2.25473e-17)
(0.506323 1.22212 3.19535e-17)
(0.441929 1.25077 3.08322e-17)
(0.383429 1.27239 2.18201e-17)
(0.326485 1.2857 4.382e-17)
(0.264317 1.29396 1.90586e-17)
(0.203032 1.29753 2.86739e-17)
(0.154168 1.29571 3.27431e-17)
(0.115922 1.28456 3.82625e-17)
(0.079143 1.25779 3.64769e-17)
(0.0432165 1.21732 4.36922e-17)
(0.0166914 1.17568 1.2871e-17)
(0.00156918 1.14079 3.53952e-17)
(-0.0142489 1.10983 2.53964e-17)
(-0.0490509 1.07828 6.78526e-17)
(-0.103138 1.04284 2.2616e-17)
(-0.169164 1.00154 2.61837e-17)
(-0.224834 0.944491 6.85429e-18)
(-0.267638 0.872825 3.48036e-17)
(-0.244521 0.781508 6.70455e-17)
(-0.179237 0.699702 1.04761e-16)
(0.0341028 0.605607 1.10363e-16)
(0.491825 0.447131 4.52153e-17)
(0.428601 0.417149 5.54953e-17)
(0.36998 0.377032 5.57386e-17)
(0.296622 0.326238 5.35784e-17)
(0.218193 0.258027 5.42234e-17)
(0.189109 0.181284 4.53749e-17)
(0.257529 0.115836 2.93028e-17)
(0.406906 0.0715915 1.64687e-17)
(0.579698 0.0470045 1.30236e-17)
(0.735149 0.0382282 6.56394e-18)
(0.863362 0.0443588 3.45571e-18)
(0.967062 0.0646575 5.66773e-19)
(1.05088 0.094775 5.42612e-18)
(1.11887 0.128527 3.9465e-18)
(1.17376 0.160991 5.99468e-18)
(1.21754 0.19016 7.00722e-18)
(1.25218 0.216865 1.00818e-17)
(1.27914 0.243851 8.68578e-18)
(1.29867 0.274316 7.94362e-18)
(1.30944 0.31056 8.93685e-18)
(1.30903 0.352757 9.62256e-18)
(1.29501 0.398851 1.05718e-17)
(1.26616 0.444901 1.2138e-17)
(1.2232 0.486262 1.50221e-17)
(1.16886 0.518657 1.70425e-17)
(1.10722 0.539181 1.52723e-17)
(1.04285 0.546625 1.55787e-17)
(0.980233 0.541535 1.35795e-17)
(0.923309 0.526 1.56523e-17)
(0.874392 0.503271 1.59786e-17)
(0.838483 0.480984 1.64487e-17)
(0.787907 0.494959 1.79021e-17)
(0.752643 0.473265 1.69264e-17)
(0.701954 0.475878 1.22879e-17)
(0.661511 0.448127 9.53456e-18)
(0.610974 0.436827 -3.76281e-19)
(0.568414 0.399876 -2.16464e-19)
(0.520639 0.373104 6.04335e-18)
(0.480296 0.3254 5.83183e-18)
(0.439567 0.283133 6.23268e-18)
(0.406802 0.225228 -1.13763e-17)
(0.378535 0.16924 -3.69284e-18)
(0.358435 0.103328 -9.17805e-19)
(0.345026 0.0374157 5.46769e-18)
(0.340613 -0.0326186 -1.28111e-17)
(0.345284 -0.101739 1.16523e-17)
(0.359185 -0.171497 5.07514e-18)
(0.381949 -0.236012 1.24269e-17)
(0.410847 -0.300862 1.35718e-17)
(0.44994 -0.35478 1.20317e-17)
(0.490941 -0.410466 7.95582e-18)
(0.541277 -0.449428 6.98422e-18)
(0.589812 -0.49397 1.5343e-17)
(0.647166 -0.515907 1.73111e-17)